 Entering Gaussian System, Link 0=g09
 Input=/rdsgpfs/general/user/smf115/home/vxHydrolysis/ReactionSMD/Diffuse/reacProd/desh_sp.com
 Output=/rdsgpfs/general/user/smf115/home/vxHydrolysis/ReactionSMD/Diffuse/reacProd/desh_sp.log
 Initial command:
 /apps/gaussian/g09_d01/g09/l1.exe "/tmp/pbs.775160.pbs/Gau-33431.inp" -scrdir="/tmp/pbs.775160.pbs/"
 Entering Link 1 = /apps/gaussian/g09_d01/g09/l1.exe PID=     33432.
  
 Copyright (c) 1988,1990,1992,1993,1995,1998,2003,2009,2013,
            Gaussian, Inc.  All Rights Reserved.
  
 This is part of the Gaussian(R) 09 program.  It is based on
 the Gaussian(R) 03 system (copyright 2003, Gaussian, Inc.),
 the Gaussian(R) 98 system (copyright 1998, Gaussian, Inc.),
 the Gaussian(R) 94 system (copyright 1995, Gaussian, Inc.),
 the Gaussian 92(TM) system (copyright 1992, Gaussian, Inc.),
 the Gaussian 90(TM) system (copyright 1990, Gaussian, Inc.),
 the Gaussian 88(TM) system (copyright 1988, Gaussian, Inc.),
 the Gaussian 86(TM) system (copyright 1986, Carnegie Mellon
 University), and the Gaussian 82(TM) system (copyright 1983,
 Carnegie Mellon University). Gaussian is a federally registered
 trademark of Gaussian, Inc.
  
 This software contains proprietary and confidential information,
 including trade secrets, belonging to Gaussian, Inc.
  
 This software is provided under written license and may be
 used, copied, transmitted, or stored only in accord with that
 written license.
  
 The following legend is applicable only to US Government
 contracts under FAR:
  
                    RESTRICTED RIGHTS LEGEND
  
 Use, reproduction and disclosure by the US Government is
 subject to restrictions as set forth in subparagraphs (a)
 and (c) of the Commercial Computer Software - Restricted
 Rights clause in FAR 52.227-19.
  
 Gaussian, Inc.
 340 Quinnipiac St., Bldg. 40, Wallingford CT 06492
  
  
 ---------------------------------------------------------------
 Warning -- This program may not be used in any manner that
 competes with the business of Gaussian, Inc. or will provide
 assistance to any competitor of Gaussian, Inc.  The licensee
 of this program is prohibited from giving any competitor of
 Gaussian, Inc. access to this program.  By using this program,
 the user acknowledges that Gaussian, Inc. is engaged in the
 business of creating and licensing software in the field of
 computational chemistry and represents and warrants to the
 licensee that it is not a competitor of Gaussian, Inc. and that
 it will not use this program in any manner prohibited above.
 ---------------------------------------------------------------
  

 Cite this work as:
 Gaussian 09, Revision D.01,
 M. J. Frisch, G. W. Trucks, H. B. Schlegel, G. E. Scuseria, 
 M. A. Robb, J. R. Cheeseman, G. Scalmani, V. Barone, B. Mennucci, 
 G. A. Petersson, H. Nakatsuji, M. Caricato, X. Li, H. P. Hratchian, 
 A. F. Izmaylov, J. Bloino, G. Zheng, J. L. Sonnenberg, M. Hada, 
 M. Ehara, K. Toyota, R. Fukuda, J. Hasegawa, M. Ishida, T. Nakajima, 
 Y. Honda, O. Kitao, H. Nakai, T. Vreven, J. A. Montgomery, Jr., 
 J. E. Peralta, F. Ogliaro, M. Bearpark, J. J. Heyd, E. Brothers, 
 K. N. Kudin, V. N. Staroverov, T. Keith, R. Kobayashi, J. Normand, 
 K. Raghavachari, A. Rendell, J. C. Burant, S. S. Iyengar, J. Tomasi, 
 M. Cossi, N. Rega, J. M. Millam, M. Klene, J. E. Knox, J. B. Cross, 
 V. Bakken, C. Adamo, J. Jaramillo, R. Gomperts, R. E. Stratmann, 
 O. Yazyev, A. J. Austin, R. Cammi, C. Pomelli, J. W. Ochterski, 
 R. L. Martin, K. Morokuma, V. G. Zakrzewski, G. A. Voth, 
 P. Salvador, J. J. Dannenberg, S. Dapprich, A. D. Daniels, 
 O. Farkas, J. B. Foresman, J. V. Ortiz, J. Cioslowski, 
 and D. J. Fox, Gaussian, Inc., Wallingford CT, 2013.
 
 ******************************************
 Gaussian 09:  ES64L-G09RevD.01 24-Apr-2013
                27-Nov-2019 
 ******************************************
 %Chk=desh_sp
 %NProcShared=12
 Will use up to   12 processors via shared memory.
 %Mem=45000MB
 ----------------------------------------------------------------------
 #P M062X/6-311++G(d,p) Opt(Tight,RCFC) Freq SCF(Conver=9) Int(Grid=Ult
 raFine) Geom(Check) Guess(Read)
 ----------------------------------------------------------------------
 1/7=10,10=5,14=-1,18=20,19=15,26=4,29=2,38=1/1,3;
 2/9=110,12=2,40=1/2;
 3/5=4,6=6,7=1111,11=2,14=-4,16=1,25=1,30=1,71=1,74=-55,75=-5,116=-2/1,2,3;
 4/5=1/1;
 5/5=2,6=9,38=6/2;
 6/7=2,8=2,9=2,10=2,28=1/1;
 7//1,2,3,16;
 1/7=10,14=-1,18=20,19=15,26=4/3(2);
 2/9=110/2;
 99//99;
 2/9=110/2;
 3/5=4,6=6,7=1111,11=2,14=-2,16=1,25=1,30=1,71=1,74=-55,75=-5/1,2,3;
 4/5=5,16=3,69=1/1;
 5/5=2,6=9,38=5/2;
 7//1,2,3,16;
 1/7=10,14=-1,18=20,19=15,26=4/3(-5);
 2/9=110/2;
 6/7=2,8=2,9=2,10=2,19=2,28=1/1;
 99/9=1/99;
 Leave Link    1 at Wed Nov 27 10:43:49 2019, MaxMem=  5898240000 cpu:         0.9
 (Enter /apps/gaussian/g09_d01/g09/l101.exe)
 -----------
 desh_sp own
 -----------
 Structure from the checkpoint file:  "desh_sp.chk"
 Charge =  0 Multiplicity = 1
 Redundant internal coordinates found in file.
 S,0,-2.8564012674,-0.1785222144,0.1809845048
 C,0,-1.8199564231,-0.3104084343,-1.3261819875
 H,0,-4.0122665492,-0.5044623007,-0.4219629549
 C,0,-0.4996578102,0.4197177318,-1.1251922334
 H,0,-2.3514044134,0.1583406103,-2.1536564198
 H,0,-1.6739849052,-1.3620690331,-1.5688673072
 H,0,0.1052904734,0.2418850694,-2.0283663685
 N,0,0.2019007802,0.06343115,0.1031795509
 H,0,-0.70725208,1.4919462526,-1.0897873971
 C,0,0.5940501538,-1.3570281531,0.1704212032
 C,0,1.2789118246,1.0238647004,0.4344004232
 C,0,0.7141276694,2.2135574948,1.2107722911
 C,0,2.0942679199,1.5382108489,-0.7619536514
 H,0,1.9684434148,0.4973161395,1.0970371194
 C,0,1.7711693743,-1.752424354,-0.7292870423
 H,0,-0.2806479723,-1.9191142284,-0.1656349645
 C,0,0.8594861693,-1.7994365301,1.6089129474
 H,0,1.7513572444,-1.3271919207,2.0284850059
 H,0,1.0224165416,-2.8799825763,1.6331975123
 H,0,0.0105063171,-1.5711518112,2.2568670524
 H,0,1.6138705321,-1.4434276933,-1.7655691549
 H,0,1.894159681,-2.8385205666,-0.7181433568
 H,0,2.7043550706,-1.3072869302,-0.3718989489
 H,0,1.5073499031,2.2289284442,-1.3737434465
 H,0,2.4513153636,0.7320675232,-1.4036134544
 H,0,2.9643671939,2.0865822137,-0.3921661424
 H,0,-0.054325031,2.7298542781,0.6276065822
 H,0,1.5057715864,2.9348570271,1.4304656456
 H,0,0.270200238,1.8946942624,2.1561899922
 Recover connectivity data from disk.
 NAtoms=     29 NQM=       29 NQMF=       0 NMMI=      0 NMMIF=      0
                NMic=       0 NMicF=      0.
                    Isotopes and Nuclear Properties:
 (Nuclear quadrupole moments (NQMom) in fm**2, nuclear magnetic moments (NMagM)
  in nuclear magnetons)

  Atom         1           2           3           4           5           6           7           8           9          10
 IAtWgt=          32          12           1          12           1           1           1          14           1          12
 AtmWgt=  31.9720718  12.0000000   1.0078250  12.0000000   1.0078250   1.0078250   1.0078250  14.0030740   1.0078250  12.0000000
 NucSpn=           0           0           1           0           1           1           1           2           1           0
 AtZEff= -13.6000000  -3.6000000  -1.0000000  -3.6000000  -1.0000000  -1.0000000  -1.0000000  -4.5500000  -1.0000000  -3.6000000
 NQMom=    0.0000000   0.0000000   0.0000000   0.0000000   0.0000000   0.0000000   0.0000000   2.0440000   0.0000000   0.0000000
 NMagM=    0.0000000   0.0000000   2.7928460   0.0000000   2.7928460   2.7928460   2.7928460   0.4037610   2.7928460   0.0000000
 AtZNuc=  16.0000000   6.0000000   1.0000000   6.0000000   1.0000000   1.0000000   1.0000000   7.0000000   1.0000000   6.0000000

  Atom        11          12          13          14          15          16          17          18          19          20
 IAtWgt=          12          12          12           1          12           1          12           1           1           1
 AtmWgt=  12.0000000  12.0000000  12.0000000   1.0078250  12.0000000   1.0078250  12.0000000   1.0078250   1.0078250   1.0078250
 NucSpn=           0           0           0           1           0           1           0           1           1           1
 AtZEff=  -3.6000000  -3.6000000  -3.6000000  -1.0000000  -3.6000000  -1.0000000  -3.6000000  -1.0000000  -1.0000000  -1.0000000
 NQMom=    0.0000000   0.0000000   0.0000000   0.0000000   0.0000000   0.0000000   0.0000000   0.0000000   0.0000000   0.0000000
 NMagM=    0.0000000   0.0000000   0.0000000   2.7928460   0.0000000   2.7928460   0.0000000   2.7928460   2.7928460   2.7928460
 AtZNuc=   6.0000000   6.0000000   6.0000000   1.0000000   6.0000000   1.0000000   6.0000000   1.0000000   1.0000000   1.0000000

  Atom        21          22          23          24          25          26          27          28          29
 IAtWgt=           1           1           1           1           1           1           1           1           1
 AtmWgt=   1.0078250   1.0078250   1.0078250   1.0078250   1.0078250   1.0078250   1.0078250   1.0078250   1.0078250
 NucSpn=           1           1           1           1           1           1           1           1           1
 AtZEff=  -1.0000000  -1.0000000  -1.0000000  -1.0000000  -1.0000000  -1.0000000  -1.0000000  -1.0000000  -1.0000000
 NQMom=    0.0000000   0.0000000   0.0000000   0.0000000   0.0000000   0.0000000   0.0000000   0.0000000   0.0000000
 NMagM=    2.7928460   2.7928460   2.7928460   2.7928460   2.7928460   2.7928460   2.7928460   2.7928460   2.7928460
 AtZNuc=   1.0000000   1.0000000   1.0000000   1.0000000   1.0000000   1.0000000   1.0000000   1.0000000   1.0000000
 Leave Link  101 at Wed Nov 27 10:43:49 2019, MaxMem=  5898240000 cpu:        10.3
 (Enter /apps/gaussian/g09_d01/g09/l103.exe)

 GradGradGradGradGradGradGradGradGradGradGradGradGradGradGradGradGradGrad
 Berny optimization.
 Initialization pass.
 Cartesian force constants read from checkpoint file:
 "desh_sp.chk"
 FormGI is forming the generalized inverse of G from B-inverse, IUseBI=4.
                           ----------------------------
                           !    Initial Parameters    !
                           ! (Angstroms and Degrees)  !
 --------------------------                            --------------------------
 ! Name  Definition              Value          Derivative Info.                !
 --------------------------------------------------------------------------------
 ! R1    R(1,2)                  1.8339         D2E/DX2 =    0.2013             !
 ! R2    R(1,3)                  1.3438         D2E/DX2 =    0.2717             !
 ! R3    R(2,4)                  1.5221         D2E/DX2 =    0.2988             !
 ! R4    R(2,5)                  1.0894         D2E/DX2 =    0.3474             !
 ! R5    R(2,6)                  1.0891         D2E/DX2 =    0.347              !
 ! R6    R(4,7)                  1.1015         D2E/DX2 =    0.319              !
 ! R7    R(4,8)                  1.4588         D2E/DX2 =    0.3422             !
 ! R8    R(4,9)                  1.0927         D2E/DX2 =    0.3412             !
 ! R9    R(8,10)                 1.4751         D2E/DX2 =    0.3256             !
 ! R10   R(8,11)                 1.4806         D2E/DX2 =    0.3266             !
 ! R11   R(10,15)                1.5334         D2E/DX2 =    0.2754             !
 ! R12   R(10,16)                1.0927         D2E/DX2 =    0.3402             !
 ! R13   R(10,17)                1.5282         D2E/DX2 =    0.289              !
 ! R14   R(11,12)                1.5288         D2E/DX2 =    0.2887             !
 ! R15   R(11,13)                1.5364         D2E/DX2 =    0.2766             !
 ! R16   R(11,14)                1.0917         D2E/DX2 =    0.3423             !
 ! R17   R(12,27)                1.0941         D2E/DX2 =    0.3398             !
 ! R18   R(12,28)                1.0933         D2E/DX2 =    0.3418             !
 ! R19   R(12,29)                1.092          D2E/DX2 =    0.3434             !
 ! R20   R(13,24)                1.0935         D2E/DX2 =    0.3404             !
 ! R21   R(13,25)                1.0904         D2E/DX2 =    0.3494             !
 ! R22   R(13,26)                1.0929         D2E/DX2 =    0.3419             !
 ! R23   R(15,21)                1.0927         D2E/DX2 =    0.3428             !
 ! R24   R(15,22)                1.0931         D2E/DX2 =    0.3414             !
 ! R25   R(15,23)                1.0939         D2E/DX2 =    0.34               !
 ! R26   R(17,18)                1.0929         D2E/DX2 =    0.3417             !
 ! R27   R(17,19)                1.093          D2E/DX2 =    0.3421             !
 ! R28   R(17,20)                1.0921         D2E/DX2 =    0.3429             !
 ! A1    A(2,1,3)               95.735          D2E/DX2 =    0.1851             !
 ! A2    A(1,2,4)              110.3175         D2E/DX2 =    0.1544             !
 ! A3    A(1,2,5)              108.5168         D2E/DX2 =    0.0517             !
 ! A4    A(1,2,6)              109.1666         D2E/DX2 =    0.0546             !
 ! A5    A(4,2,5)              108.4849         D2E/DX2 =    0.0663             !
 ! A6    A(4,2,6)              112.1083         D2E/DX2 =    0.0712             !
 ! A7    A(5,2,6)              108.1557         D2E/DX2 =    0.028              !
 ! A8    A(2,4,7)              106.8987         D2E/DX2 =    0.0667             !
 ! A9    A(2,4,8)              114.2807         D2E/DX2 =    0.2166             !
 ! A10   A(2,4,9)              108.0704         D2E/DX2 =    0.0669             !
 ! A11   A(7,4,8)              112.7609         D2E/DX2 =    0.0641             !
 ! A12   A(7,4,9)              106.8175         D2E/DX2 =    0.0209             !
 ! A13   A(8,4,9)              107.6824         D2E/DX2 =    0.0613             !
 ! A14   A(4,8,10)             113.6669         D2E/DX2 =    0.1308             !
 ! A15   A(4,8,11)             112.3201         D2E/DX2 =    0.1421             !
 ! A16   A(10,8,11)            114.9023         D2E/DX2 =    0.1447             !
 ! A17   A(8,10,15)            115.1897         D2E/DX2 =    0.0975             !
 ! A18   A(8,10,16)            105.576          D2E/DX2 =    0.0274             !
 ! A19   A(8,10,17)            111.5828         D2E/DX2 =    0.0904             !
 ! A20   A(15,10,16)           107.542          D2E/DX2 =    0.0269             !
 ! A21   A(15,10,17)           110.1393         D2E/DX2 =    0.0912             !
 ! A22   A(16,10,17)           106.2372         D2E/DX2 =    0.0281             !
 ! A23   A(8,11,12)            110.4681         D2E/DX2 =    0.0916             !
 ! A24   A(8,11,13)            115.404          D2E/DX2 =    0.0941             !
 ! A25   A(8,11,14)            106.4015         D2E/DX2 =    0.0278             !
 ! A26   A(12,11,13)           109.3279         D2E/DX2 =    0.0985             !
 ! A27   A(12,11,14)           107.484          D2E/DX2 =    0.0269             !
 ! A28   A(13,11,14)           107.392          D2E/DX2 =    0.0286             !
 ! A29   A(11,12,27)           110.8552         D2E/DX2 =    0.1027             !
 ! A30   A(11,12,28)           110.3633         D2E/DX2 =    0.099              !
 ! A31   A(11,12,29)           111.2607         D2E/DX2 =    0.1035             !
 ! A32   A(27,12,28)           107.7186         D2E/DX2 =    0.0487             !
 ! A33   A(27,12,29)           108.2823         D2E/DX2 =    0.0501             !
 ! A34   A(28,12,29)           108.2419         D2E/DX2 =    0.0501             !
 ! A35   A(11,13,24)           111.2384         D2E/DX2 =    0.1022             !
 ! A36   A(11,13,25)           112.6107         D2E/DX2 =    0.0999             !
 ! A37   A(11,13,26)           109.0863         D2E/DX2 =    0.0992             !
 ! A38   A(24,13,25)           108.2692         D2E/DX2 =    0.0519             !
 ! A39   A(24,13,26)           107.4366         D2E/DX2 =    0.0481             !
 ! A40   A(25,13,26)           108.0198         D2E/DX2 =    0.049              !
 ! A41   A(10,15,21)           111.9005         D2E/DX2 =    0.0995             !
 ! A42   A(10,15,22)           109.6692         D2E/DX2 =    0.0989             !
 ! A43   A(10,15,23)           110.9913         D2E/DX2 =    0.0988             !
 ! A44   A(21,15,22)           107.8679         D2E/DX2 =    0.049              !
 ! A45   A(21,15,23)           108.5147         D2E/DX2 =    0.0503             !
 ! A46   A(22,15,23)           107.7578         D2E/DX2 =    0.0483             !
 ! A47   A(10,17,18)           112.2104         D2E/DX2 =    0.1057             !
 ! A48   A(10,17,19)           109.4504         D2E/DX2 =    0.1012             !
 ! A49   A(10,17,20)           111.2804         D2E/DX2 =    0.0969             !
 ! A50   A(18,17,19)           107.2767         D2E/DX2 =    0.0503             !
 ! A51   A(18,17,20)           108.4379         D2E/DX2 =    0.0511             !
 ! A52   A(19,17,20)           108.0193         D2E/DX2 =    0.048              !
 ! D1    D(3,1,2,4)            161.9222         D2E/DX2 =    0.0171             !
 ! D2    D(3,1,2,5)             43.2005         D2E/DX2 =    0.0204             !
 ! D3    D(3,1,2,6)            -74.4652         D2E/DX2 =    0.0216             !
 ! D4    D(1,2,4,7)            175.8459         D2E/DX2 =    0.0163             !
 ! D5    D(1,2,4,8)             50.3508         D2E/DX2 =    0.0178             !
 ! D6    D(1,2,4,9)            -69.4967         D2E/DX2 =    0.0157             !
 ! D7    D(5,2,4,7)            -65.4129         D2E/DX2 =    0.0155             !
 ! D8    D(5,2,4,8)            169.092          D2E/DX2 =    0.0174             !
 ! D9    D(5,2,4,9)             49.2445         D2E/DX2 =    0.0157             !
 ! D10   D(6,2,4,7)             53.9559         D2E/DX2 =    0.0152             !
 ! D11   D(6,2,4,8)            -71.5392         D2E/DX2 =    0.0166             !
 ! D12   D(6,2,4,9)            168.6133         D2E/DX2 =    0.0166             !
 ! D13   D(2,4,8,10)            62.1233         D2E/DX2 =    0.0243             !
 ! D14   D(2,4,8,11)          -165.2745         D2E/DX2 =    0.0214             !
 ! D15   D(7,4,8,10)           -60.2266         D2E/DX2 =    0.0243             !
 ! D16   D(7,4,8,11)            72.3756         D2E/DX2 =    0.026              !
 ! D17   D(9,4,8,10)          -177.8121         D2E/DX2 =    0.0262             !
 ! D18   D(9,4,8,11)           -45.2099         D2E/DX2 =    0.0251             !
 ! D19   D(4,8,10,15)           73.6897         D2E/DX2 =    0.0223             !
 ! D20   D(4,8,10,16)          -44.7927         D2E/DX2 =    0.0163             !
 ! D21   D(4,8,10,17)         -159.7809         D2E/DX2 =    0.0221             !
 ! D22   D(11,8,10,15)         -57.6577         D2E/DX2 =    0.024              !
 ! D23   D(11,8,10,16)        -176.1401         D2E/DX2 =    0.0194             !
 ! D24   D(11,8,10,17)          68.8717         D2E/DX2 =    0.0256             !
 ! D25   D(4,8,11,12)           85.1743         D2E/DX2 =    0.0244             !
 ! D26   D(4,8,11,13)          -39.4616         D2E/DX2 =    0.0274             !
 ! D27   D(4,8,11,14)         -158.4566         D2E/DX2 =    0.0183             !
 ! D28   D(10,8,11,12)        -142.8362         D2E/DX2 =    0.024              !
 ! D29   D(10,8,11,13)          92.528          D2E/DX2 =    0.03               !
 ! D30   D(10,8,11,14)         -26.467          D2E/DX2 =    0.0162             !
 ! D31   D(8,10,15,21)         -52.3774         D2E/DX2 =    0.0183             !
 ! D32   D(8,10,15,22)        -172.039          D2E/DX2 =    0.0184             !
 ! D33   D(8,10,15,23)          69.0099         D2E/DX2 =    0.0187             !
 ! D34   D(16,10,15,21)         65.0023         D2E/DX2 =    0.0133             !
 ! D35   D(16,10,15,22)        -54.6592         D2E/DX2 =    0.0134             !
 ! D36   D(16,10,15,23)       -173.6104         D2E/DX2 =    0.0141             !
 ! D37   D(17,10,15,21)       -179.6396         D2E/DX2 =    0.0178             !
 ! D38   D(17,10,15,22)         60.6988         D2E/DX2 =    0.0172             !
 ! D39   D(17,10,15,23)        -58.2523         D2E/DX2 =    0.0181             !
 ! D40   D(8,10,17,18)         -68.1295         D2E/DX2 =    0.0196             !
 ! D41   D(8,10,17,19)         172.8978         D2E/DX2 =    0.0202             !
 ! D42   D(8,10,17,20)          53.5828         D2E/DX2 =    0.0191             !
 ! D43   D(15,10,17,18)         61.1117         D2E/DX2 =    0.018              !
 ! D44   D(15,10,17,19)        -57.861          D2E/DX2 =    0.018              !
 ! D45   D(15,10,17,20)       -177.176          D2E/DX2 =    0.0184             !
 ! D46   D(16,10,17,18)        177.2904         D2E/DX2 =    0.013              !
 ! D47   D(16,10,17,19)         58.3177         D2E/DX2 =    0.0135             !
 ! D48   D(16,10,17,20)        -60.9973         D2E/DX2 =    0.0132             !
 ! D49   D(8,11,12,27)         -59.182          D2E/DX2 =    0.02               !
 ! D50   D(8,11,12,28)        -178.4433         D2E/DX2 =    0.0205             !
 ! D51   D(8,11,12,29)          61.3779         D2E/DX2 =    0.0204             !
 ! D52   D(13,11,12,27)         68.8551         D2E/DX2 =    0.0184             !
 ! D53   D(13,11,12,28)        -50.4062         D2E/DX2 =    0.0182             !
 ! D54   D(13,11,12,29)       -170.585          D2E/DX2 =    0.0191             !
 ! D55   D(14,11,12,27)       -174.876          D2E/DX2 =    0.0132             !
 ! D56   D(14,11,12,28)         65.8628         D2E/DX2 =    0.0134             !
 ! D57   D(14,11,12,29)        -54.316          D2E/DX2 =    0.0135             !
 ! D58   D(8,11,13,24)          71.9235         D2E/DX2 =    0.0184             !
 ! D59   D(8,11,13,25)         -49.8248         D2E/DX2 =    0.0175             !
 ! D60   D(8,11,13,26)        -169.739          D2E/DX2 =    0.0184             !
 ! D61   D(12,11,13,24)        -53.3033         D2E/DX2 =    0.0177             !
 ! D62   D(12,11,13,25)       -175.0516         D2E/DX2 =    0.0178             !
 ! D63   D(12,11,13,26)         65.0342         D2E/DX2 =    0.0172             !
 ! D64   D(14,11,13,24)       -169.6307         D2E/DX2 =    0.0139             !
 ! D65   D(14,11,13,25)         68.621          D2E/DX2 =    0.0134             !
 ! D66   D(14,11,13,26)        -51.2932         D2E/DX2 =    0.0132             !
 --------------------------------------------------------------------------------
 Trust Radius=3.00D-01 FncErr=1.00D-07 GrdErr=1.00D-06
 Number of steps in this run=    156 maximum allowed number of steps=    174.
 GradGradGradGradGradGradGradGradGradGradGradGradGradGradGradGradGradGrad

 Leave Link  103 at Wed Nov 27 10:43:50 2019, MaxMem=  5898240000 cpu:         0.5
 (Enter /apps/gaussian/g09_d01/g09/l202.exe)
                          Input orientation:                          
 ---------------------------------------------------------------------
 Center     Atomic      Atomic             Coordinates (Angstroms)
 Number     Number       Type             X           Y           Z
 ---------------------------------------------------------------------
      1         16           0       -2.856401   -0.178522    0.180985
      2          6           0       -1.819956   -0.310408   -1.326182
      3          1           0       -4.012267   -0.504462   -0.421963
      4          6           0       -0.499658    0.419718   -1.125192
      5          1           0       -2.351404    0.158341   -2.153656
      6          1           0       -1.673985   -1.362069   -1.568867
      7          1           0        0.105290    0.241885   -2.028366
      8          7           0        0.201901    0.063431    0.103180
      9          1           0       -0.707252    1.491946   -1.089787
     10          6           0        0.594050   -1.357028    0.170421
     11          6           0        1.278912    1.023865    0.434400
     12          6           0        0.714128    2.213557    1.210772
     13          6           0        2.094268    1.538211   -0.761954
     14          1           0        1.968443    0.497316    1.097037
     15          6           0        1.771169   -1.752424   -0.729287
     16          1           0       -0.280648   -1.919114   -0.165635
     17          6           0        0.859486   -1.799437    1.608913
     18          1           0        1.751357   -1.327192    2.028485
     19          1           0        1.022417   -2.879983    1.633198
     20          1           0        0.010506   -1.571152    2.256867
     21          1           0        1.613871   -1.443428   -1.765569
     22          1           0        1.894160   -2.838521   -0.718143
     23          1           0        2.704355   -1.307287   -0.371899
     24          1           0        1.507350    2.228928   -1.373743
     25          1           0        2.451315    0.732068   -1.403613
     26          1           0        2.964367    2.086582   -0.392166
     27          1           0       -0.054325    2.729854    0.627607
     28          1           0        1.505772    2.934857    1.430466
     29          1           0        0.270200    1.894694    2.156190
 ---------------------------------------------------------------------
                    Distance matrix (angstroms):
                    1          2          3          4          5
     1  S    0.000000
     2  C    1.833893   0.000000
     3  H    1.343803   2.379389   0.000000
     4  C    2.760114   1.522061   3.699603   0.000000
     5  H    2.412270   1.089439   2.489284   2.134250   0.000000
     6  H    2.420924   1.089125   2.741977   2.179600   1.764234
     7  H    3.718816   2.122420   4.482392   1.101504   2.461306
     8  N    3.068844   2.504144   4.284563   1.458774   3.409059
     9  H    3.004025   2.131308   3.918515   1.092714   2.369295
    10  C    3.646176   3.026989   4.721858   2.455939   4.046404
    11  C    4.314020   3.805643   5.573662   2.441441   4.541626
    12  C    4.419410   4.384988   5.691420   3.185572   4.994075
    13  C    5.324043   4.365421   6.448090   2.848055   4.858485
    14  H    4.957321   4.569068   6.251385   3.322025   5.416918
    15  C    4.971938   3.915594   5.924524   3.167270   4.761876
    16  H    3.127988   2.510831   3.998990   2.537489   3.543456
    17  C    4.298158   4.243984   5.434647   3.774553   5.319740
    18  H    5.095502   5.004190   6.316719   4.250228   6.043986
    19  H    4.944900   4.841459   5.934207   4.562176   5.912219
    20  H    3.803665   4.216433   4.949410   3.957544   5.293627
    21  H    5.037101   3.642521   5.860064   2.889359   4.294145
    22  H    5.518320   4.533842   6.357784   4.063517   5.391353
    23  H    5.701035   4.730097   6.764617   3.716947   5.557286
    24  H    5.220663   4.185864   6.232454   2.713503   4.448099
    25  H    5.613553   4.397330   6.653611   2.980490   4.894675
    26  H    6.272204   5.432099   7.442299   3.913468   5.922701
    27  H    4.063220   4.022181   5.218017   2.933830   4.429975
    28  H    5.502989   5.402899   6.760855   4.108413   5.952544
    29  H    4.239729   4.621488   5.544578   3.679090   5.335027
                    6          7          8          9         10
     6  H    0.000000
     7  H    2.439186   0.000000
     8  N    2.889072   2.141184   0.000000
     9  H    3.051146   1.761763   2.071324   0.000000
    10  C    2.858170   2.762259   1.475130   3.376117   0.000000
    11  C    4.292477   2.837975   1.480572   2.546978   2.491460
    12  C    5.120018   3.840598   2.472283   2.798860   3.720999
    13  C    4.823117   2.690779   2.550389   2.821016   3.391517
    14  H    4.881766   3.647565   2.072844   3.595947   2.487201
    15  C    3.567402   2.905173   2.540263   4.098594   1.533435
    16  H    2.054446   2.878999   2.058058   3.559689   1.092690
    17  C    4.087549   4.238585   2.483934   4.535510   1.528215
    18  H    4.967407   4.650761   2.835745   4.869900   2.189212
    19  H    4.452849   4.898390   3.417292   5.433246   2.154670
    20  H    4.185388   4.653957   2.710510   4.593239   2.177069
    21  H    3.294739   2.277094   2.785050   3.802724   2.189876
    22  H    3.954149   3.795476   3.458271   5.065413   2.162094
    23  H    4.539339   3.449486   2.892550   4.471033   2.179443
    24  H    4.801482   2.518460   2.928289   2.351220   4.009694
    25  H    4.629343   2.476778   2.788793   3.263809   3.208012
    26  H    5.898486   3.775497   3.459730   3.784317   4.218218
    27  H    4.918499   3.642754   2.729558   2.215439   4.163174
    28  H    6.129472   4.601844   3.421528   3.651183   4.565000
    29  H    5.316241   4.502165   2.751916   3.413794   3.823853
                   11         12         13         14         15
    11  C    0.000000
    12  C    1.528759   0.000000
    13  C    1.536431   2.500506   0.000000
    14  H    1.091693   2.128786   2.134277   0.000000
    15  C    3.050290   4.539844   3.306621   2.904429   0.000000
    16  H    3.384286   4.468003   4.236616   3.534387   2.134349
    17  C    3.086491   4.035315   4.276165   2.601322   2.510091
    18  H    2.879545   3.779075   4.014308   2.059988   2.790434
    19  H    4.091812   5.120316   5.138682   3.548039   2.722747
    20  H    3.415311   3.989163   4.808688   3.075270   3.471298
    21  H    3.322589   4.800176   3.182482   3.476597   1.092750
    22  H    4.077365   5.535041   4.381523   3.798448   1.093095
    23  H    2.848908   4.343063   2.936189   2.440478   1.093942
    24  H    2.184891   2.703546   1.093549   3.052187   4.041794
    25  H    2.199539   3.470972   1.090448   2.557641   2.662708
    26  H    2.157160   2.765703   1.092944   2.394861   4.034271
    27  H    2.173764   1.094150   2.822648   3.048964   5.026372
    28  H    2.166911   1.093270   2.665268   2.503367   5.167744
    29  H    2.177247   1.092044   3.459749   2.441004   4.886754
                   16         17         18         19         20
    16  H    0.000000
    17  C    2.112640   0.000000
    18  H    3.048537   1.092927   0.000000
    19  H    2.420133   1.093031   1.760331   0.000000
    20  H    2.464623   1.092120   1.772636   1.768040   0.000000
    21  H    2.524929   3.476056   3.798323   3.736994   4.332099
    22  H    2.424946   2.750534   3.138228   2.508079   3.742334
    23  H    3.054034   2.751248   2.582720   3.053310   3.773176
    24  H    4.675759   5.054077   4.927544   5.947926   5.464658
    25  H    4.003121   4.244732   4.063224   4.930606   4.966033
    26  H    5.160140   4.851390   4.357155   5.704387   5.396452
    27  H    4.721585   4.723610   4.656455   5.800074   4.599712
    28  H    5.412935   4.781534   4.310800   5.838415   4.819012
    29  H    4.498827   3.780658   3.548336   4.861778   3.477020
                   21         22         23         24         25
    21  H    0.000000
    22  H    1.766903   0.000000
    23  H    1.774826   1.766629   0.000000
    24  H    3.694736   5.124302   3.865402   0.000000
    25  H    2.359048   3.678232   2.299441   1.769903   0.000000
    26  H    4.021324   5.050569   3.403875   1.762571   1.766623
    27  H    5.091802   6.050986   4.990775   2.587500   3.794106
    28  H    5.421780   6.172459   4.762447   2.891700   3.711919
    29  H    5.322471   5.770820   4.750687   3.755354   4.333724
                   26         27         28         29
    26  H    0.000000
    27  H    3.250575   0.000000
    28  H    2.483759   1.766497   0.000000
    29  H    3.713418   1.771828   1.770664   0.000000
 Stoichiometry    C8H19NS
 Framework group  C1[X(C8H19NS)]
 Deg. of freedom    81
 Full point group                 C1      NOp   1
 RotChk:  IX=3 Diff= 1.09D-15
 Largest Abelian subgroup         C1      NOp   1
 Largest concise Abelian subgroup C1      NOp   1
                         Standard orientation:                         
 ---------------------------------------------------------------------
 Center     Atomic      Atomic             Coordinates (Angstroms)
 Number     Number       Type             X           Y           Z
 ---------------------------------------------------------------------
      1         16           0       -2.777946    0.243828    0.463553
      2          6           0       -1.912132    0.028362   -1.138665
      3          1           0       -4.018573    0.109848   -0.035145
      4          6           0       -0.487302    0.555295   -1.044481
      5          1           0       -2.442725    0.601159   -1.898435
      6          1           0       -1.942562   -1.022535   -1.423066
      7          1           0        0.001324    0.330743   -2.005798
      8          7           0        0.263449    0.053213    0.101080
      9          1           0       -0.533357    1.643756   -0.959891
     10          6           0        0.450200   -1.410016    0.091425
     11          6           0        1.493697    0.837055    0.354407
     12          6           0        1.179723    2.061918    1.213612
     13          6           0        2.263372    1.279334   -0.899631
     14          1           0        2.156774    0.191457    0.933481
     15          6           0        1.471399   -1.930926   -0.927019
     16          1           0       -0.523452   -1.828316   -0.175030
     17          6           0        0.777764   -1.944125    1.485294
     18          1           0        1.762878   -1.620539    1.830738
     19          1           0        0.784005   -3.036933    1.464129
     20          1           0        0.032915   -1.624655    2.217321
     21          1           0        1.267439   -1.560566   -1.934658
     22          1           0        1.436294   -3.023028   -0.957603
     23          1           0        2.487671   -1.637454   -0.648140
     24          1           0        1.729777    2.070692   -1.433372
     25          1           0        2.440392    0.457728   -1.594401
     26          1           0        3.233557    1.683338   -0.599550
     27          1           0        0.444587    2.705297    0.720861
     28          1           0        2.084075    2.654222    1.376591
     29          1           0        0.781639    1.770668    2.187912
 ---------------------------------------------------------------------
 Rotational constants (GHZ):      1.2602063      0.7836220      0.6610745
 Leave Link  202 at Wed Nov 27 10:43:50 2019, MaxMem=  5898240000 cpu:         0.0
 (Enter /apps/gaussian/g09_d01/g09/l301.exe)
 Standard basis: 6-311++G(d,p) (5D, 7F)
 Ernie: Thresh=  0.10000D-02 Tol=  0.10000D-05 Strict=F.
 There are   371 symmetry adapted cartesian basis functions of A   symmetry.
 There are   361 symmetry adapted basis functions of A   symmetry.
   361 basis functions,   545 primitive gaussians,   371 cartesian basis functions
    45 alpha electrons       45 beta electrons
       nuclear repulsion energy       692.9500469266 Hartrees.
 IExCor= 4336 DFT=T Ex+Corr=M062X ExCW=0 ScaHFX=  0.540000
 ScaDFX=  1.000000  1.000000  1.000000  1.000000 ScalE2=  1.000000  1.000000
 IRadAn=      5 IRanWt=     -1 IRanGd=            0 ICorTp=0 IEmpDi=  4
 NAtoms=   29 NActive=   29 NUniq=   29 SFac= 1.00D+00 NAtFMM=   60 NAOKFM=F Big=F
 Integral buffers will be    131072 words long.
 Raffenetti 2 integral format.
 Two-electron integral symmetry is turned on.
 Leave Link  301 at Wed Nov 27 10:43:50 2019, MaxMem=  5898240000 cpu:         0.8
 (Enter /apps/gaussian/g09_d01/g09/l302.exe)
 NPDir=0 NMtPBC=     1 NCelOv=     1 NCel=       1 NClECP=     1 NCelD=      1
         NCelK=      1 NCelE2=     1 NClLst=     1 CellRange=     0.0.
 One-electron integrals computed using PRISM.
 NBasis=   361 RedAO= T EigKep=  9.63D-06  NBF=   361
 NBsUse=   361 1.00D-06 EigRej= -1.00D+00 NBFU=   361
 Precomputing XC quadrature grid using
 IXCGrd= 4 IRadAn=           5 IRanWt=          -1 IRanGd=           0 AccXCQ= 0.00D+00.
 Generated NRdTot=       0 NPtTot=           0 NUsed=           0 NTot=          32
 NSgBfM=   370   370   370   370   370 MxSgAt=    29 MxSgA2=    29.
 Leave Link  302 at Wed Nov 27 10:43:50 2019, MaxMem=  5898240000 cpu:         9.5
 (Enter /apps/gaussian/g09_d01/g09/l303.exe)
 DipDrv:  MaxL=1.
 Leave Link  303 at Wed Nov 27 10:43:51 2019, MaxMem=  5898240000 cpu:         1.3
 (Enter /apps/gaussian/g09_d01/g09/l401.exe)
 Initial guess from the checkpoint file:  "desh_sp.chk"
 B after Tr=     0.000000    0.000000    0.000000
         Rot=    1.000000    0.000000    0.000000    0.000000 Ang=   0.00 deg.
 Guess basis will be translated and rotated to current coordinates.
 JPrj=2 DoOrth=T DoCkMO=T.
 Leave Link  401 at Wed Nov 27 10:43:51 2019, MaxMem=  5898240000 cpu:         7.2
 (Enter /apps/gaussian/g09_d01/g09/l502.exe)
 Closed shell SCF:
 Using DIIS extrapolation, IDIIS=  1040.
 Integral symmetry usage will be decided dynamically.
 Keep R1 ints in memory in canonical form, NReq=2160933781.
 IVT=      438732 IEndB=      438732 NGot=  5898240000 MDV=  3763045458
 LenX=  3763045458 LenY=  3762907376
 Requested convergence on RMS density matrix=1.00D-09 within 128 cycles.
 Requested convergence on MAX density matrix=1.00D-07.
 Requested convergence on             energy=1.00D-07.
 No special actions if energy rises.
 FoFCou: FMM=F IPFlag=           0 FMFlag=           0 FMFlg1=           0
         NFxFlg=           0 DoJE=F BraDBF=F KetDBF=F FulRan=T
         wScrn=  0.000000 ICntrl=     600 IOpCl=  0 I1Cent=           0 NGrid=           0
         NMat0=    1 NMatS0=  65341 NMatT0=    0 NMatD0=    1 NMtDS0=    0 NMtDT0=    0
 Symmetry not used in FoFCou.

 Cycle   1  Pass 1  IDiag  1:
 E= -769.130403878801    
 DIIS: error= 1.49D-03 at cycle   1 NSaved=   1.
 NSaved= 1 IEnMin= 1 EnMin= -769.130403878801     IErMin= 1 ErrMin= 1.49D-03
 ErrMax= 1.49D-03  0.00D+00 EMaxC= 1.00D-01 BMatC= 1.23D-03 BMatP= 1.23D-03
 IDIUse=3 WtCom= 9.85D-01 WtEn= 1.49D-02
 Coeff-Com:  0.100D+01
 Coeff-En:   0.100D+01
 Coeff:      0.100D+01
 Gap=     0.261 Goal=   None    Shift=    0.000
 GapD=    0.261 DampG=1.000 DampE=1.000 DampFc=1.0000 IDamp=-1.
 RMSDP=4.56D-03 MaxDP=3.82D-01              OVMax= 1.90D-02

 Cycle   2  Pass 1  IDiag  1:
 E= -769.132202031729     Delta-E=       -0.001798152927 Rises=F Damp=F
 DIIS: error= 1.22D-03 at cycle   2 NSaved=   2.
 NSaved= 2 IEnMin= 2 EnMin= -769.132202031729     IErMin= 2 ErrMin= 1.22D-03
 ErrMax= 1.22D-03  0.00D+00 EMaxC= 1.00D-01 BMatC= 6.30D-04 BMatP= 1.23D-03
 IDIUse=3 WtCom= 9.88D-01 WtEn= 1.22D-02
 Coeff-Com:  0.404D+00 0.596D+00
 Coeff-En:   0.000D+00 0.100D+01
 Coeff:      0.399D+00 0.601D+00
 Gap=     0.265 Goal=   None    Shift=    0.000
 RMSDP=1.43D-03 MaxDP=1.42D-01 DE=-1.80D-03 OVMax= 6.33D-03

 Cycle   3  Pass 1  IDiag  1:
 E= -769.132892199315     Delta-E=       -0.000690167586 Rises=F Damp=F
 DIIS: error= 2.90D-04 at cycle   3 NSaved=   3.
 NSaved= 3 IEnMin= 3 EnMin= -769.132892199315     IErMin= 3 ErrMin= 2.90D-04
 ErrMax= 2.90D-04  0.00D+00 EMaxC= 1.00D-01 BMatC= 4.49D-05 BMatP= 6.30D-04
 IDIUse=3 WtCom= 9.97D-01 WtEn= 2.90D-03
 Coeff-Com:  0.835D-01 0.216D+00 0.700D+00
 Coeff-En:   0.000D+00 0.000D+00 0.100D+01
 Coeff:      0.833D-01 0.216D+00 0.701D+00
 Gap=     0.263 Goal=   None    Shift=    0.000
 RMSDP=1.32D-04 MaxDP=8.76D-03 DE=-6.90D-04 OVMax= 1.49D-03

 Cycle   4  Pass 1  IDiag  1:
 E= -769.132926454057     Delta-E=       -0.000034254743 Rises=F Damp=F
 DIIS: error= 1.16D-04 at cycle   4 NSaved=   4.
 NSaved= 4 IEnMin= 4 EnMin= -769.132926454057     IErMin= 4 ErrMin= 1.16D-04
 ErrMax= 1.16D-04  0.00D+00 EMaxC= 1.00D-01 BMatC= 5.95D-06 BMatP= 4.49D-05
 IDIUse=3 WtCom= 9.99D-01 WtEn= 1.16D-03
 Coeff-Com: -0.503D-02 0.273D-01 0.267D+00 0.711D+00
 Coeff-En:   0.000D+00 0.000D+00 0.000D+00 0.100D+01
 Coeff:     -0.502D-02 0.272D-01 0.266D+00 0.711D+00
 Gap=     0.264 Goal=   None    Shift=    0.000
 RMSDP=5.58D-05 MaxDP=3.99D-03 DE=-3.43D-05 OVMax= 9.99D-04

 Cycle   5  Pass 1  IDiag  1:
 E= -769.132931649777     Delta-E=       -0.000005195719 Rises=F Damp=F
 DIIS: error= 4.58D-05 at cycle   5 NSaved=   5.
 NSaved= 5 IEnMin= 5 EnMin= -769.132931649777     IErMin= 5 ErrMin= 4.58D-05
 ErrMax= 4.58D-05  0.00D+00 EMaxC= 1.00D-01 BMatC= 7.66D-07 BMatP= 5.95D-06
 IDIUse=1 WtCom= 1.00D+00 WtEn= 0.00D+00
 Coeff-Com: -0.821D-02-0.544D-02 0.267D-01 0.277D+00 0.710D+00
 Coeff:     -0.821D-02-0.544D-02 0.267D-01 0.277D+00 0.710D+00
 Gap=     0.263 Goal=   None    Shift=    0.000
 RMSDP=1.47D-05 MaxDP=1.12D-03 DE=-5.20D-06 OVMax= 2.79D-04

 Cycle   6  Pass 1  IDiag  1:
 E= -769.132932340333     Delta-E=       -0.000000690556 Rises=F Damp=F
 DIIS: error= 8.76D-06 at cycle   6 NSaved=   6.
 NSaved= 6 IEnMin= 6 EnMin= -769.132932340333     IErMin= 6 ErrMin= 8.76D-06
 ErrMax= 8.76D-06  0.00D+00 EMaxC= 1.00D-01 BMatC= 4.41D-08 BMatP= 7.66D-07
 IDIUse=1 WtCom= 1.00D+00 WtEn= 0.00D+00
 Coeff-Com: -0.175D-02-0.334D-02-0.191D-01 0.837D-02 0.206D+00 0.810D+00
 Coeff:     -0.175D-02-0.334D-02-0.191D-01 0.837D-02 0.206D+00 0.810D+00
 Gap=     0.263 Goal=   None    Shift=    0.000
 RMSDP=5.20D-06 MaxDP=3.99D-04 DE=-6.91D-07 OVMax= 8.72D-05

 Cycle   7  Pass 1  IDiag  1:
 E= -769.132932390158     Delta-E=       -0.000000049826 Rises=F Damp=F
 DIIS: error= 2.63D-06 at cycle   7 NSaved=   7.
 NSaved= 7 IEnMin= 7 EnMin= -769.132932390158     IErMin= 7 ErrMin= 2.63D-06
 ErrMax= 2.63D-06  0.00D+00 EMaxC= 1.00D-01 BMatC= 4.19D-09 BMatP= 4.41D-08
 IDIUse=1 WtCom= 1.00D+00 WtEn= 0.00D+00
 Coeff-Com: -0.299D-03-0.111D-02-0.782D-02-0.111D-01 0.333D-01 0.295D+00
 Coeff-Com:  0.692D+00
 Coeff:     -0.299D-03-0.111D-02-0.782D-02-0.111D-01 0.333D-01 0.295D+00
 Coeff:      0.692D+00
 Gap=     0.263 Goal=   None    Shift=    0.000
 RMSDP=1.98D-06 MaxDP=1.30D-04 DE=-4.98D-08 OVMax= 2.02D-05

 Cycle   8  Pass 1  IDiag  1:
 E= -769.132932394777     Delta-E=       -0.000000004618 Rises=F Damp=F
 DIIS: error= 8.73D-07 at cycle   8 NSaved=   8.
 NSaved= 8 IEnMin= 8 EnMin= -769.132932394777     IErMin= 8 ErrMin= 8.73D-07
 ErrMax= 8.73D-07  0.00D+00 EMaxC= 1.00D-01 BMatC= 2.82D-10 BMatP= 4.19D-09
 IDIUse=1 WtCom= 1.00D+00 WtEn= 0.00D+00
 Coeff-Com:  0.845D-04-0.378D-04-0.235D-03-0.360D-02-0.115D-01-0.625D-03
 Coeff-Com:  0.196D+00 0.820D+00
 Coeff:      0.845D-04-0.378D-04-0.235D-03-0.360D-02-0.115D-01-0.625D-03
 Coeff:      0.196D+00 0.820D+00
 Gap=     0.263 Goal=   None    Shift=    0.000
 RMSDP=8.51D-07 MaxDP=9.45D-05 DE=-4.62D-09 OVMax= 1.03D-05

 Cycle   9  Pass 1  IDiag  1:
 E= -769.132932395192     Delta-E=       -0.000000000415 Rises=F Damp=F
 DIIS: error= 2.26D-07 at cycle   9 NSaved=   9.
 NSaved= 9 IEnMin= 9 EnMin= -769.132932395192     IErMin= 9 ErrMin= 2.26D-07
 ErrMax= 2.26D-07  0.00D+00 EMaxC= 1.00D-01 BMatC= 3.53D-11 BMatP= 2.82D-10
 IDIUse=1 WtCom= 1.00D+00 WtEn= 0.00D+00
 Coeff-Com:  0.463D-04 0.525D-04 0.410D-03-0.468D-03-0.654D-02-0.226D-01
 Coeff-Com:  0.187D-01 0.310D+00 0.700D+00
 Coeff:      0.463D-04 0.525D-04 0.410D-03-0.468D-03-0.654D-02-0.226D-01
 Coeff:      0.187D-01 0.310D+00 0.700D+00
 Gap=     0.263 Goal=   None    Shift=    0.000
 RMSDP=1.64D-07 MaxDP=1.17D-05 DE=-4.15D-10 OVMax= 2.20D-06

 Cycle  10  Pass 1  IDiag  1:
 E= -769.132932395173     Delta-E=        0.000000000019 Rises=F Damp=F
 DIIS: error= 5.23D-08 at cycle  10 NSaved=  10.
 NSaved=10 IEnMin= 9 EnMin= -769.132932395192     IErMin=10 ErrMin= 5.23D-08
 ErrMax= 5.23D-08  0.00D+00 EMaxC= 1.00D-01 BMatC= 2.33D-12 BMatP= 3.53D-11
 IDIUse=1 WtCom= 1.00D+00 WtEn= 0.00D+00
 Coeff-Com:  0.897D-05 0.196D-04 0.136D-03 0.171D-03-0.117D-02-0.791D-02
 Coeff-Com: -0.120D-01 0.373D-01 0.233D+00 0.751D+00
 Coeff:      0.897D-05 0.196D-04 0.136D-03 0.171D-03-0.117D-02-0.791D-02
 Coeff:     -0.120D-01 0.373D-01 0.233D+00 0.751D+00
 Gap=     0.263 Goal=   None    Shift=    0.000
 RMSDP=3.73D-08 MaxDP=3.52D-06 DE= 1.89D-11 OVMax= 6.18D-07

 Cycle  11  Pass 1  IDiag  1:
 E= -769.132932395213     Delta-E=       -0.000000000040 Rises=F Damp=F
 DIIS: error= 1.80D-08 at cycle  11 NSaved=  11.
 NSaved=11 IEnMin=11 EnMin= -769.132932395213     IErMin=11 ErrMin= 1.80D-08
 ErrMax= 1.80D-08  0.00D+00 EMaxC= 1.00D-01 BMatC= 1.48D-13 BMatP= 2.33D-12
 IDIUse=1 WtCom= 1.00D+00 WtEn= 0.00D+00
 Coeff-Com: -0.223D-05 0.228D-06-0.250D-05 0.801D-04 0.305D-03 0.476D-03
 Coeff-Com: -0.419D-02-0.201D-01-0.171D-01 0.181D+00 0.860D+00
 Coeff:     -0.223D-05 0.228D-06-0.250D-05 0.801D-04 0.305D-03 0.476D-03
 Coeff:     -0.419D-02-0.201D-01-0.171D-01 0.181D+00 0.860D+00
 Gap=     0.263 Goal=   None    Shift=    0.000
 RMSDP=1.79D-08 MaxDP=1.32D-06 DE=-4.00D-11 OVMax= 3.26D-07

 Cycle  12  Pass 1  IDiag  1:
 E= -769.132932395195     Delta-E=        0.000000000018 Rises=F Damp=F
 DIIS: error= 3.50D-09 at cycle  12 NSaved=  12.
 NSaved=12 IEnMin=11 EnMin= -769.132932395213     IErMin=12 ErrMin= 3.50D-09
 ErrMax= 3.50D-09  0.00D+00 EMaxC= 1.00D-01 BMatC= 1.10D-14 BMatP= 1.48D-13
 IDIUse=1 WtCom= 1.00D+00 WtEn= 0.00D+00
 Coeff-Com: -0.105D-05-0.922D-06-0.627D-05 0.161D-04 0.143D-03 0.564D-03
 Coeff-Com: -0.475D-03-0.738D-02-0.175D-01 0.796D-02 0.235D+00 0.781D+00
 Coeff:     -0.105D-05-0.922D-06-0.627D-05 0.161D-04 0.143D-03 0.564D-03
 Coeff:     -0.475D-03-0.738D-02-0.175D-01 0.796D-02 0.235D+00 0.781D+00
 Gap=     0.263 Goal=   None    Shift=    0.000
 RMSDP=3.67D-09 MaxDP=2.42D-07 DE= 1.75D-11 OVMax= 9.41D-08

 Cycle  13  Pass 1  IDiag  1:
 E= -769.132932395201     Delta-E=       -0.000000000006 Rises=F Damp=F
 DIIS: error= 1.71D-09 at cycle  13 NSaved=  13.
 NSaved=13 IEnMin=11 EnMin= -769.132932395213     IErMin=13 ErrMin= 1.71D-09
 ErrMax= 1.71D-09  0.00D+00 EMaxC= 1.00D-01 BMatC= 1.62D-15 BMatP= 1.10D-14
 IDIUse=1 WtCom= 1.00D+00 WtEn= 0.00D+00
 Coeff-Com: -0.860D-07-0.411D-06-0.171D-05-0.496D-05 0.629D-05 0.981D-04
 Coeff-Com:  0.365D-03 0.305D-03-0.300D-02-0.210D-01-0.376D-01 0.230D+00
 Coeff-Com:  0.831D+00
 Coeff:     -0.860D-07-0.411D-06-0.171D-05-0.496D-05 0.629D-05 0.981D-04
 Coeff:      0.365D-03 0.305D-03-0.300D-02-0.210D-01-0.376D-01 0.230D+00
 Coeff:      0.831D+00
 Gap=     0.263 Goal=   None    Shift=    0.000
 RMSDP=2.12D-09 MaxDP=1.31D-07 DE=-5.68D-12 OVMax= 4.79D-08

 Cycle  14  Pass 1  IDiag  1:
 E= -769.132932395198     Delta-E=        0.000000000003 Rises=F Damp=F
 DIIS: error= 4.96D-10 at cycle  14 NSaved=  14.
 NSaved=14 IEnMin=11 EnMin= -769.132932395213     IErMin=14 ErrMin= 4.96D-10
 ErrMax= 4.96D-10  0.00D+00 EMaxC= 1.00D-01 BMatC= 1.59D-16 BMatP= 1.62D-15
 IDIUse=1 WtCom= 1.00D+00 WtEn= 0.00D+00
 Coeff-Com:  0.118D-06 0.169D-07 0.225D-06-0.370D-05-0.167D-04-0.423D-04
 Coeff-Com:  0.189D-03 0.106D-02 0.127D-02-0.753D-02-0.401D-01-0.392D-01
 Coeff-Com:  0.215D+00 0.869D+00
 Coeff:      0.118D-06 0.169D-07 0.225D-06-0.370D-05-0.167D-04-0.423D-04
 Coeff:      0.189D-03 0.106D-02 0.127D-02-0.753D-02-0.401D-01-0.392D-01
 Coeff:      0.215D+00 0.869D+00
 Gap=     0.263 Goal=   None    Shift=    0.000
 RMSDP=9.03D-10 MaxDP=1.13D-07 DE= 3.41D-12 OVMax= 1.95D-08

 Cycle  15  Pass 1  IDiag  1:
 E= -769.132932395198     Delta-E=       -0.000000000001 Rises=F Damp=F
 DIIS: error= 1.02D-10 at cycle  15 NSaved=  15.
 NSaved=15 IEnMin=11 EnMin= -769.132932395213     IErMin=15 ErrMin= 1.02D-10
 ErrMax= 1.02D-10  0.00D+00 EMaxC= 1.00D-01 BMatC= 5.68D-18 BMatP= 1.59D-16
 IDIUse=1 WtCom= 1.00D+00 WtEn= 0.00D+00
 Coeff-Com:  0.182D-07 0.314D-07 0.142D-06 0.808D-07-0.234D-05-0.118D-04
 Coeff-Com: -0.102D-04 0.639D-04 0.369D-03 0.101D-02-0.103D-02-0.190D-01
 Coeff-Com: -0.402D-01 0.652D-01 0.994D+00
 Coeff:      0.182D-07 0.314D-07 0.142D-06 0.808D-07-0.234D-05-0.118D-04
 Coeff:     -0.102D-04 0.639D-04 0.369D-03 0.101D-02-0.103D-02-0.190D-01
 Coeff:     -0.402D-01 0.652D-01 0.994D+00
 Gap=     0.263 Goal=   None    Shift=    0.000
 RMSDP=5.23D-10 MaxDP=5.52D-08 DE=-6.82D-13 OVMax= 4.38D-09

 SCF Done:  E(RM062X) =  -769.132932395     A.U. after   15 cycles
            NFock= 15  Conv=0.52D-09     -V/T= 2.0029
 KE= 7.669429741274D+02 PE=-3.192747589408D+03 EE= 9.637216359587D+02
 Leave Link  502 at Wed Nov 27 10:48:26 2019, MaxMem=  5898240000 cpu:      2334.4
 (Enter /apps/gaussian/g09_d01/g09/l601.exe)
 Copying SCF densities to generalized density rwf, IOpCl= 0 IROHF=0.

 **********************************************************************

            Population analysis using the SCF density.

 **********************************************************************

 Orbital symmetries:
       Occupied  (A) (A) (A) (A) (A) (A) (A) (A) (A) (A) (A) (A)
                 (A) (A) (A) (A) (A) (A) (A) (A) (A) (A) (A) (A)
                 (A) (A) (A) (A) (A) (A) (A) (A) (A) (A) (A) (A)
                 (A) (A) (A) (A) (A) (A) (A) (A) (A)
       Virtual   (A) (A) (A) (A) (A) (A) (A) (A) (A) (A) (A) (A)
                 (A) (A) (A) (A) (A) (A) (A) (A) (A) (A) (A) (A)
                 (A) (A) (A) (A) (A) (A) (A) (A) (A) (A) (A) (A)
                 (A) (A) (A) (A) (A) (A) (A) (A) (A) (A) (A) (A)
                 (A) (A) (A) (A) (A) (A) (A) (A) (A) (A) (A) (A)
                 (A) (A) (A) (A) (A) (A) (A) (A) (A) (A) (A) (A)
                 (A) (A) (A) (A) (A) (A) (A) (A) (A) (A) (A) (A)
                 (A) (A) (A) (A) (A) (A) (A) (A) (A) (A) (A) (A)
                 (A) (A) (A) (A) (A) (A) (A) (A) (A) (A) (A) (A)
                 (A) (A) (A) (A) (A) (A) (A) (A) (A) (A) (A) (A)
                 (A) (A) (A) (A) (A) (A) (A) (A) (A) (A) (A) (A)
                 (A) (A) (A) (A) (A) (A) (A) (A) (A) (A) (A) (A)
                 (A) (A) (A) (A) (A) (A) (A) (A) (A) (A) (A) (A)
                 (A) (A) (A) (A) (A) (A) (A) (A) (A) (A) (A) (A)
                 (A) (A) (A) (A) (A) (A) (A) (A) (A) (A) (A) (A)
                 (A) (A) (A) (A) (A) (A) (A) (A) (A) (A) (A) (A)
                 (A) (A) (A) (A) (A) (A) (A) (A) (A) (A) (A) (A)
                 (A) (A) (A) (A) (A) (A) (A) (A) (A) (A) (A) (A)
                 (A) (A) (A) (A) (A) (A) (A) (A) (A) (A) (A) (A)
                 (A) (A) (A) (A) (A) (A) (A) (A) (A) (A) (A) (A)
                 (A) (A) (A) (A) (A) (A) (A) (A) (A) (A) (A) (A)
                 (A) (A) (A) (A) (A) (A) (A) (A) (A) (A) (A) (A)
                 (A) (A) (A) (A) (A) (A) (A) (A) (A) (A) (A) (A)
                 (A) (A) (A) (A) (A) (A) (A) (A) (A) (A) (A) (A)
                 (A) (A) (A) (A) (A) (A) (A) (A) (A) (A) (A) (A)
                 (A) (A) (A) (A) (A) (A) (A) (A) (A) (A) (A) (A)
                 (A) (A) (A) (A)
 The electronic state is 1-A.
 Alpha  occ. eigenvalues --  -89.88094 -14.73193 -10.56729 -10.56620 -10.56480
 Alpha  occ. eigenvalues --  -10.56468 -10.52445 -10.52301 -10.51879 -10.51682
 Alpha  occ. eigenvalues --   -8.24669  -6.16797  -6.16586  -6.16166  -1.03267
 Alpha  occ. eigenvalues --   -0.89565  -0.88523  -0.83761  -0.78529  -0.76915
 Alpha  occ. eigenvalues --   -0.76880  -0.69171  -0.68482  -0.60610  -0.56424
 Alpha  occ. eigenvalues --   -0.55683  -0.54366  -0.50704  -0.50015  -0.48747
 Alpha  occ. eigenvalues --   -0.48489  -0.46686  -0.45136  -0.44655  -0.44468
 Alpha  occ. eigenvalues --   -0.43584  -0.42095  -0.41298  -0.40815  -0.39493
 Alpha  occ. eigenvalues --   -0.38489  -0.37873  -0.37045  -0.28809  -0.26927
 Alpha virt. eigenvalues --   -0.00597   0.00336   0.00692   0.01127   0.02413
 Alpha virt. eigenvalues --    0.02730   0.02901   0.03161   0.03383   0.04841
 Alpha virt. eigenvalues --    0.05204   0.05447   0.05972   0.06272   0.06436
 Alpha virt. eigenvalues --    0.06875   0.07597   0.08718   0.08851   0.09379
 Alpha virt. eigenvalues --    0.09438   0.10213   0.10424   0.11039   0.11448
 Alpha virt. eigenvalues --    0.11940   0.12616   0.12747   0.13209   0.13608
 Alpha virt. eigenvalues --    0.14105   0.14277   0.14757   0.15156   0.15312
 Alpha virt. eigenvalues --    0.15664   0.15967   0.16133   0.16418   0.16535
 Alpha virt. eigenvalues --    0.16772   0.16952   0.17438   0.17899   0.18043
 Alpha virt. eigenvalues --    0.18656   0.18827   0.18980   0.19609   0.19723
 Alpha virt. eigenvalues --    0.20170   0.20809   0.21626   0.22073   0.22583
 Alpha virt. eigenvalues --    0.23008   0.24136   0.24354   0.24530   0.25595
 Alpha virt. eigenvalues --    0.25757   0.26248   0.26732   0.27997   0.28457
 Alpha virt. eigenvalues --    0.28887   0.29595   0.29923   0.30761   0.31350
 Alpha virt. eigenvalues --    0.31593   0.32171   0.33361   0.33568   0.33888
 Alpha virt. eigenvalues --    0.34330   0.35281   0.36130   0.36341   0.37489
 Alpha virt. eigenvalues --    0.37808   0.38894   0.39027   0.40197   0.41272
 Alpha virt. eigenvalues --    0.42006   0.42165   0.43433   0.44729   0.46971
 Alpha virt. eigenvalues --    0.47884   0.48623   0.50619   0.51176   0.52485
 Alpha virt. eigenvalues --    0.52667   0.54897   0.55121   0.56609   0.58249
 Alpha virt. eigenvalues --    0.59791   0.60780   0.61084   0.62729   0.63282
 Alpha virt. eigenvalues --    0.64533   0.65197   0.66599   0.67135   0.67973
 Alpha virt. eigenvalues --    0.70876   0.71409   0.71661   0.71837   0.72704
 Alpha virt. eigenvalues --    0.73087   0.74035   0.74933   0.75514   0.76225
 Alpha virt. eigenvalues --    0.76411   0.77196   0.78212   0.79728   0.80257
 Alpha virt. eigenvalues --    0.81310   0.81496   0.82463   0.83356   0.84159
 Alpha virt. eigenvalues --    0.84276   0.85738   0.86088   0.88230   0.90029
 Alpha virt. eigenvalues --    0.91564   0.93460   0.94927   0.97066   0.98352
 Alpha virt. eigenvalues --    1.00548   1.01804   1.02409   1.03946   1.06093
 Alpha virt. eigenvalues --    1.06780   1.09783   1.11785   1.14470   1.17737
 Alpha virt. eigenvalues --    1.19950   1.22340   1.23239   1.26949   1.30258
 Alpha virt. eigenvalues --    1.31063   1.33818   1.37406   1.39009   1.44572
 Alpha virt. eigenvalues --    1.45422   1.49762   1.50324   1.51445   1.52387
 Alpha virt. eigenvalues --    1.53116   1.53370   1.53609   1.55017   1.55587
 Alpha virt. eigenvalues --    1.57337   1.58584   1.59843   1.61422   1.62319
 Alpha virt. eigenvalues --    1.62863   1.63277   1.63567   1.64006   1.65838
 Alpha virt. eigenvalues --    1.66702   1.67381   1.68301   1.69044   1.70108
 Alpha virt. eigenvalues --    1.70678   1.72144   1.72433   1.73357   1.74554
 Alpha virt. eigenvalues --    1.75625   1.77053   1.77237   1.78340   1.81861
 Alpha virt. eigenvalues --    1.82379   1.84490   1.85640   1.86019   1.86485
 Alpha virt. eigenvalues --    1.88484   1.89512   1.89847   1.90766   1.91493
 Alpha virt. eigenvalues --    1.93119   1.97622   1.99863   2.00602   2.02157
 Alpha virt. eigenvalues --    2.04742   2.06482   2.08536   2.10769   2.11388
 Alpha virt. eigenvalues --    2.14206   2.15981   2.17898   2.18635   2.19890
 Alpha virt. eigenvalues --    2.22125   2.24556   2.25359   2.27539   2.28526
 Alpha virt. eigenvalues --    2.30253   2.31233   2.36319   2.37980   2.39047
 Alpha virt. eigenvalues --    2.40325   2.42080   2.44759   2.51752   2.52372
 Alpha virt. eigenvalues --    2.53748   2.54482   2.55553   2.56462   2.56788
 Alpha virt. eigenvalues --    2.58075   2.58812   2.59038   2.60018   2.61342
 Alpha virt. eigenvalues --    2.61715   2.61909   2.64958   2.65834   2.66660
 Alpha virt. eigenvalues --    2.67527   2.68760   2.69360   2.72039   2.73237
 Alpha virt. eigenvalues --    2.74715   2.75346   2.77250   2.78252   2.79964
 Alpha virt. eigenvalues --    2.81414   2.82941   2.85127   2.85251   2.88984
 Alpha virt. eigenvalues --    2.93749   2.94235   2.95365   2.98506   3.01260
 Alpha virt. eigenvalues --    3.04512   3.06940   3.10318   3.11925   3.13968
 Alpha virt. eigenvalues --    3.22270   3.23655   3.27550   3.34450   3.42930
 Alpha virt. eigenvalues --    3.46126   3.65282   3.70979   3.75836   3.80539
 Alpha virt. eigenvalues --    3.82636   3.83640   3.84370   3.85453   3.87870
 Alpha virt. eigenvalues --    3.88736   3.90040   3.90396   3.92703   4.14433
 Alpha virt. eigenvalues --    4.14977   4.19183   4.30929   4.33275   4.44435
 Alpha virt. eigenvalues --    4.96740   4.98390   8.17568  17.55486  17.64967
 Alpha virt. eigenvalues --   17.69140  23.89808  23.94874  23.96247  24.01985
 Alpha virt. eigenvalues --   24.07400  24.07737  24.08543  24.11547  35.67308
 Alpha virt. eigenvalues --  189.49124
          Condensed to atoms (all electrons):
               1          2          3          4          5          6
     1  S   16.100290  -0.269575   0.194425   0.251585  -0.066687  -0.123555
     2  C   -0.269575   7.928771  -0.008701  -1.838204   0.283371   0.550382
     3  H    0.194425  -0.008701   0.737811  -0.017994  -0.011440   0.012243
     4  C    0.251585  -1.838204  -0.017994   7.816454   0.111837  -0.234305
     5  H   -0.066687   0.283371  -0.011440   0.111837   0.555715  -0.053885
     6  H   -0.123555   0.550382   0.012243  -0.234305  -0.053885   0.635938
     7  H    0.016802  -0.131735  -0.007982   0.461367   0.014744  -0.038399
     8  N    0.034631  -0.040228   0.000525   0.372885   0.015381  -0.033598
     9  H    0.046116   0.069075   0.004676   0.189938  -0.054888   0.039628
    10  C   -0.057169  -0.032466   0.002601  -0.661105  -0.059097   0.131867
    11  C   -0.113856  -0.213886   0.011540  -0.372931   0.017822  -0.008633
    12  C    0.039536   0.133204  -0.002352   0.033192  -0.005053   0.001451
    13  C    0.015379  -0.245064  -0.002043   0.244226   0.006616  -0.015315
    14  H   -0.003442  -0.016466   0.000477  -0.026167  -0.000590   0.001856
    15  C   -0.032992   0.356802  -0.003395  -0.306324  -0.016877   0.050418
    16  H    0.048295  -0.146868  -0.000416   0.151671   0.012017  -0.046447
    17  C    0.052099  -0.142746   0.003927   0.230248   0.015444  -0.052443
    18  H   -0.000552  -0.010603   0.000226   0.028160   0.000854  -0.000428
    19  H   -0.009124   0.018450   0.000243  -0.031801  -0.000853   0.005124
    20  H    0.027539  -0.023455  -0.002227   0.025255   0.001436  -0.007152
    21  H    0.002350  -0.024584   0.000325   0.013475  -0.003158  -0.004011
    22  H   -0.000521   0.008401  -0.000009   0.003397  -0.000253   0.003195
    23  H    0.000332   0.010934  -0.000301  -0.010392   0.000566  -0.000041
    24  H   -0.001828  -0.035800  -0.000226   0.013725   0.002232  -0.001662
    25  H   -0.001235   0.037774   0.000299  -0.039946  -0.003130   0.005793
    26  H   -0.000236  -0.015705  -0.000034   0.022314   0.000568  -0.000501
    27  H   -0.002374   0.027625   0.001326  -0.117296  -0.000079   0.004186
    28  H    0.001082   0.004815  -0.000085   0.010434  -0.000293   0.000145
    29  H    0.007195  -0.009167  -0.001361   0.018986   0.000290  -0.001305
               7          8          9         10         11         12
     1  S    0.016802   0.034631   0.046116  -0.057169  -0.113856   0.039536
     2  C   -0.131735  -0.040228   0.069075  -0.032466  -0.213886   0.133204
     3  H   -0.007982   0.000525   0.004676   0.002601   0.011540  -0.002352
     4  C    0.461367   0.372885   0.189938  -0.661105  -0.372931   0.033192
     5  H    0.014744   0.015381  -0.054888  -0.059097   0.017822  -0.005053
     6  H   -0.038399  -0.033598   0.039628   0.131867  -0.008633   0.001451
     7  H    0.659254  -0.048303  -0.095445   0.019843  -0.009160  -0.019117
     8  N   -0.048303   8.066831  -0.109607  -1.239404  -0.702022   0.181262
     9  H   -0.095445  -0.109607   0.682473   0.168546  -0.003806  -0.004896
    10  C    0.019843  -1.239404   0.168546   9.415350  -0.052372  -0.219186
    11  C   -0.009160  -0.702022  -0.003806  -0.052372   8.526496  -1.084281
    12  C   -0.019117   0.181262  -0.004896  -0.219186  -1.084281   6.368780
    13  C    0.082991   0.165876  -0.066174  -0.098443  -0.233798  -0.147663
    14  H   -0.010285  -0.211876   0.010166   0.194684   0.655512  -0.124662
    15  C   -0.066592   0.320915   0.057613  -0.724326  -0.216108   0.128616
    16  H    0.015175  -0.155672  -0.019001   0.622879   0.002929  -0.023290
    17  C    0.025654   0.179875  -0.059807  -1.000400   0.072228   0.065717
    18  H    0.003365  -0.041955  -0.006004   0.170288  -0.046391  -0.008682
    19  H   -0.004033   0.005685   0.004598  -0.031181   0.014186   0.008866
    20  H    0.006389   0.045164  -0.007090  -0.205329   0.021045  -0.008185
    21  H   -0.012059   0.004517   0.008881  -0.032246  -0.043560  -0.008777
    22  H   -0.004281   0.033186   0.000738  -0.172171   0.002993   0.000846
    23  H    0.005865  -0.038850  -0.003033   0.147596  -0.011868   0.004723
    24  H   -0.007471  -0.061504  -0.011729   0.028653   0.160989  -0.040329
    25  H   -0.008946   0.005680   0.016268  -0.008382  -0.097559   0.047394
    26  H    0.005378   0.016025  -0.006061   0.000769  -0.078088  -0.036433
    27  H   -0.002560  -0.051223   0.012280   0.059891   0.223204   0.258442
    28  H   -0.002140   0.019575   0.004679   0.012630  -0.123227   0.454577
    29  H    0.002577   0.016793  -0.002200  -0.028181  -0.115577   0.430441
              13         14         15         16         17         18
     1  S    0.015379  -0.003442  -0.032992   0.048295   0.052099  -0.000552
     2  C   -0.245064  -0.016466   0.356802  -0.146868  -0.142746  -0.010603
     3  H   -0.002043   0.000477  -0.003395  -0.000416   0.003927   0.000226
     4  C    0.244226  -0.026167  -0.306324   0.151671   0.230248   0.028160
     5  H    0.006616  -0.000590  -0.016877   0.012017   0.015444   0.000854
     6  H   -0.015315   0.001856   0.050418  -0.046447  -0.052443  -0.000428
     7  H    0.082991  -0.010285  -0.066592   0.015175   0.025654   0.003365
     8  N    0.165876  -0.211876   0.320915  -0.155672   0.179875  -0.041955
     9  H   -0.066174   0.010166   0.057613  -0.019001  -0.059807  -0.006004
    10  C   -0.098443   0.194684  -0.724326   0.622879  -1.000400   0.170288
    11  C   -0.233798   0.655512  -0.216108   0.002929   0.072228  -0.046391
    12  C   -0.147663  -0.124662   0.128616  -0.023290   0.065717  -0.008682
    13  C    5.840129  -0.130024  -0.100284   0.022956   0.069871   0.006434
    14  H   -0.130024   0.630481  -0.050356   0.004801  -0.052473   0.006669
    15  C   -0.100284  -0.050356   6.498055  -0.270788  -0.308166  -0.107521
    16  H    0.022956   0.004801  -0.270788   0.662499  -0.012893   0.031060
    17  C    0.069871  -0.052473  -0.308166  -0.012893   6.281256   0.318750
    18  H    0.006434   0.006669  -0.107521   0.031060   0.318750   0.605325
    19  H   -0.012735  -0.000200   0.046886  -0.040429   0.369496  -0.054236
    20  H    0.008693  -0.003246  -0.002407  -0.002781   0.512105  -0.043069
    21  H    0.031799   0.002997   0.429928  -0.005136  -0.018633  -0.009377
    22  H   -0.001266   0.000063   0.541084  -0.021721  -0.028837  -0.000770
    23  H   -0.018818  -0.012831   0.267669   0.013790  -0.005564   0.016336
    24  H    0.325463   0.016818  -0.041005   0.004493   0.005383   0.003108
    25  H    0.355398  -0.004819   0.107799  -0.007637  -0.032691  -0.003560
    26  H    0.472600  -0.016846  -0.011477   0.001905   0.005553   0.001117
    27  H   -0.073155   0.024794  -0.003063  -0.001479  -0.013741   0.000577
    28  H   -0.011333  -0.019957   0.003742  -0.000276  -0.004801   0.000779
    29  H    0.040739  -0.013317  -0.001717   0.000888   0.019429  -0.000567
              19         20         21         22         23         24
     1  S   -0.009124   0.027539   0.002350  -0.000521   0.000332  -0.001828
     2  C    0.018450  -0.023455  -0.024584   0.008401   0.010934  -0.035800
     3  H    0.000243  -0.002227   0.000325  -0.000009  -0.000301  -0.000226
     4  C   -0.031801   0.025255   0.013475   0.003397  -0.010392   0.013725
     5  H   -0.000853   0.001436  -0.003158  -0.000253   0.000566   0.002232
     6  H    0.005124  -0.007152  -0.004011   0.003195  -0.000041  -0.001662
     7  H   -0.004033   0.006389  -0.012059  -0.004281   0.005865  -0.007471
     8  N    0.005685   0.045164   0.004517   0.033186  -0.038850  -0.061504
     9  H    0.004598  -0.007090   0.008881   0.000738  -0.003033  -0.011729
    10  C   -0.031181  -0.205329  -0.032246  -0.172171   0.147596   0.028653
    11  C    0.014186   0.021045  -0.043560   0.002993  -0.011868   0.160989
    12  C    0.008866  -0.008185  -0.008777   0.000846   0.004723  -0.040329
    13  C   -0.012735   0.008693   0.031799  -0.001266  -0.018818   0.325463
    14  H   -0.000200  -0.003246   0.002997   0.000063  -0.012831   0.016818
    15  C    0.046886  -0.002407   0.429928   0.541084   0.267669  -0.041005
    16  H   -0.040429  -0.002781  -0.005136  -0.021721   0.013790   0.004493
    17  C    0.369496   0.512105  -0.018633  -0.028837  -0.005564   0.005383
    18  H   -0.054236  -0.043069  -0.009377  -0.000770   0.016336   0.003108
    19  H    0.574622  -0.026127   0.004118  -0.005470   0.000558  -0.000707
    20  H   -0.026127   0.527790  -0.004109   0.002452  -0.004094   0.000336
    21  H    0.004118  -0.004109   0.605460  -0.028809  -0.056864   0.002513
    22  H   -0.005470   0.002452  -0.028809   0.520149  -0.028445  -0.000712
    23  H    0.000558  -0.004094  -0.056864  -0.028445   0.556620  -0.001231
    24  H   -0.000707   0.000336   0.002513  -0.000712  -0.001231   0.565154
    25  H    0.003156  -0.002532  -0.014753   0.005481  -0.003451  -0.065461
    26  H   -0.000649   0.001042  -0.002196  -0.000653   0.000006  -0.025171
    27  H    0.000864  -0.001088  -0.001590   0.000005   0.001544   0.010062
    28  H    0.000419  -0.000951   0.000692   0.000000  -0.000410  -0.001618
    29  H   -0.000986  -0.001766   0.000912  -0.000419   0.001464  -0.003362
              25         26         27         28         29
     1  S   -0.001235  -0.000236  -0.002374   0.001082   0.007195
     2  C    0.037774  -0.015705   0.027625   0.004815  -0.009167
     3  H    0.000299  -0.000034   0.001326  -0.000085  -0.001361
     4  C   -0.039946   0.022314  -0.117296   0.010434   0.018986
     5  H   -0.003130   0.000568  -0.000079  -0.000293   0.000290
     6  H    0.005793  -0.000501   0.004186   0.000145  -0.001305
     7  H   -0.008946   0.005378  -0.002560  -0.002140   0.002577
     8  N    0.005680   0.016025  -0.051223   0.019575   0.016793
     9  H    0.016268  -0.006061   0.012280   0.004679  -0.002200
    10  C   -0.008382   0.000769   0.059891   0.012630  -0.028181
    11  C   -0.097559  -0.078088   0.223204  -0.123227  -0.115577
    12  C    0.047394  -0.036433   0.258442   0.454577   0.430441
    13  C    0.355398   0.472600  -0.073155  -0.011333   0.040739
    14  H   -0.004819  -0.016846   0.024794  -0.019957  -0.013317
    15  C    0.107799  -0.011477  -0.003063   0.003742  -0.001717
    16  H   -0.007637   0.001905  -0.001479  -0.000276   0.000888
    17  C   -0.032691   0.005553  -0.013741  -0.004801   0.019429
    18  H   -0.003560   0.001117   0.000577   0.000779  -0.000567
    19  H    0.003156  -0.000649   0.000864   0.000419  -0.000986
    20  H   -0.002532   0.001042  -0.001088  -0.000951  -0.001766
    21  H   -0.014753  -0.002196  -0.001590   0.000692   0.000912
    22  H    0.005481  -0.000653   0.000005   0.000000  -0.000419
    23  H   -0.003451   0.000006   0.001544  -0.000410   0.001464
    24  H   -0.065461  -0.025171   0.010062  -0.001618  -0.003362
    25  H    0.613052  -0.032805  -0.001999   0.008363  -0.005316
    26  H   -0.032805   0.511912   0.001146  -0.009062   0.002631
    27  H   -0.001999   0.001146   0.599921  -0.048408  -0.041342
    28  H    0.008363  -0.009062  -0.048408   0.576691  -0.024826
    29  H   -0.005316   0.002631  -0.041342  -0.024826   0.534095
 Mulliken charges:
               1
     1  S   -0.154510
     2  C   -0.224350
     3  H    0.087921
     4  C   -0.342684
     5  H    0.237389
     6  H    0.179455
     7  H    0.149104
     8  N    0.249436
     9  H    0.134068
    10  C   -0.354137
    11  C   -0.181821
    12  C   -0.424140
    13  C   -0.533054
    14  H    0.148238
    15  C   -0.546129
    16  H    0.159476
    17  C   -0.493840
    18  H    0.140665
    19  H    0.161258
    20  H    0.166359
    21  H    0.161893
    22  H    0.172347
    23  H    0.168190
    24  H    0.160887
    25  H    0.127765
    26  H    0.192951
    27  H    0.133532
    28  H    0.148762
    29  H    0.174968
 Sum of Mulliken charges =   0.00000
 Mulliken charges with hydrogens summed into heavy atoms:
               1
     1  S   -0.066589
     2  C    0.192494
     4  C   -0.059512
     8  N    0.249436
    10  C   -0.194661
    11  C   -0.033583
    12  C    0.033122
    13  C   -0.051451
    15  C   -0.043699
    17  C   -0.025558
 Electronic spatial extent (au):  <R**2>=           2082.2981
 Charge=              0.0000 electrons
 Dipole moment (field-independent basis, Debye):
    X=              0.7471    Y=             -0.4807    Z=             -1.9316  Tot=              2.1261
 Quadrupole moment (field-independent basis, Debye-Ang):
   XX=            -71.5895   YY=            -74.3222   ZZ=            -74.3908
   XY=              1.1166   XZ=              5.0979   YZ=             -0.5498
 Traceless Quadrupole moment (field-independent basis, Debye-Ang):
   XX=              1.8447   YY=             -0.8881   ZZ=             -0.9566
   XY=              1.1166   XZ=              5.0979   YZ=             -0.5498
 Octapole moment (field-independent basis, Debye-Ang**2):
  XXX=            -19.8167  YYY=             -5.3605  ZZZ=             -0.8209  XYY=              2.4428
  XXY=              0.3615  XXZ=             -6.3369  XZZ=             -3.6175  YZZ=              1.0590
  YYZ=             -2.4856  XYZ=              1.2947
 Hexadecapole moment (field-independent basis, Debye-Ang**3):
 XXXX=          -1382.4748 YYYY=           -884.4988 ZZZZ=           -533.7579 XXXY=             11.1292
 XXXZ=             32.9530 YYYX=              3.8349 YYYZ=             -4.7770 ZZZX=              4.9391
 ZZZY=              0.3278 XXYY=           -418.3978 XXZZ=           -339.8640 YYZZ=           -244.7494
 XXYZ=              1.5734 YYXZ=              8.5033 ZZXY=             -2.7519
 N-N= 6.929500469266D+02 E-N=-3.192747589413D+03  KE= 7.669429741274D+02
 No NMR shielding tensors so no spin-rotation constants.
 Leave Link  601 at Wed Nov 27 10:48:29 2019, MaxMem=  5898240000 cpu:         2.8
 (Enter /apps/gaussian/g09_d01/g09/l701.exe)
 Compute integral first derivatives.
 ... and contract with generalized density number  0.
 Leave Link  701 at Wed Nov 27 10:48:29 2019, MaxMem=  5898240000 cpu:         3.8
 (Enter /apps/gaussian/g09_d01/g09/l702.exe)
 L702 exits ... SP integral derivatives will be done elsewhere.
 Leave Link  702 at Wed Nov 27 10:48:29 2019, MaxMem=  5898240000 cpu:         0.5
 (Enter /apps/gaussian/g09_d01/g09/l703.exe)
 Compute integral first derivatives, UseDBF=F ICtDFT=           0.
 Integral derivatives from FoFJK, PRISM(SPDF).
 Calling FoFJK, ICntrl=      2127 FMM=F ISym2X=0 I1Cent= 0 IOpClX= 0 NMat=1 NMatS=1 NMatT=0.
 FoFJK:  IHMeth= 1 ICntrl=    2127 DoSepK=F KAlg= 0 I1Cent=   0 FoldK=F
 IRaf=         0 NMat=   1 IRICut=       1 DoRegI=T DoRafI=F ISym2E= 0.
 FoFCou: FMM=F IPFlag=           0 FMFlag=      100000 FMFlg1=         800
         NFxFlg=           0 DoJE=F BraDBF=F KetDBF=F FulRan=T
         wScrn=  0.000000 ICntrl=    2127 IOpCl=  0 I1Cent=           0 NGrid=           0
         NMat0=    1 NMatS0=      1 NMatT0=    0 NMatD0=    1 NMtDS0=    0 NMtDT0=    0
 Symmetry not used in FoFCou.
 Leave Link  703 at Wed Nov 27 10:48:57 2019, MaxMem=  5898240000 cpu:       330.3
 (Enter /apps/gaussian/g09_d01/g09/l716.exe)
 Dipole        = 2.93920691D-01-1.89119213D-01-7.59939577D-01
 ***** Axes restored to original set *****
 -------------------------------------------------------------------
 Center     Atomic                   Forces (Hartrees/Bohr)
 Number     Number              X              Y              Z
 -------------------------------------------------------------------
      1       16           0.002099728    0.000557911    0.001170318
      2        6          -0.003519123   -0.000038176    0.001506323
      3        1           0.000821779   -0.000078378   -0.000196795
      4        6           0.000913324   -0.000649541    0.001642674
      5        1           0.000469944    0.000155917   -0.000684236
      6        1           0.000591491   -0.000229500   -0.000576114
      7        1           0.000784226    0.000329210   -0.000981512
      8        7           0.002424590   -0.000172746   -0.002365736
      9        1          -0.000399973   -0.000189456    0.000400745
     10        6          -0.001030608    0.001576911    0.000889986
     11        6          -0.002105334   -0.000256886    0.000377674
     12        6          -0.000992361   -0.000099255    0.001833583
     13        6           0.000979185    0.000130383   -0.000498640
     14        1          -0.000042658   -0.000207498    0.000124289
     15        6           0.000493447   -0.000618415   -0.000486457
     16        1          -0.000526061    0.000011828    0.000751313
     17        6          -0.001411441   -0.000269366    0.001593581
     18        1          -0.000016393   -0.000263862   -0.000266086
     19        1           0.000421588    0.000208160   -0.000020040
     20        1          -0.000156686    0.001399834   -0.001684023
     21        1           0.000302156   -0.000322635   -0.000093197
     22        1           0.000371039    0.000388117   -0.000298644
     23        1          -0.000088947   -0.000309689   -0.000262554
     24        1           0.000328442   -0.000114088    0.000059504
     25        1           0.000095226    0.000286126   -0.000016219
     26        1          -0.000197186    0.000059261   -0.000537434
     27        1           0.000115813   -0.000358752    0.000681813
     28        1           0.000072290    0.000106911   -0.000360351
     29        1          -0.000797495   -0.001032325   -0.001703766
 -------------------------------------------------------------------
 Cartesian Forces:  Max     0.003519123 RMS     0.000917193
 Leave Link  716 at Wed Nov 27 10:48:57 2019, MaxMem=  5898240000 cpu:         0.5
 (Enter /apps/gaussian/g09_d01/g09/l103.exe)

 GradGradGradGradGradGradGradGradGradGradGradGradGradGradGradGradGradGrad
 Berny optimization.
 FormGI is forming the generalized inverse of G from B-inverse, IUseBI=4.
 Internal  Forces:  Max     0.005612958 RMS     0.001282814
 Search for a local minimum.
 Step number   1 out of a maximum of  156
 All quantities printed in internal units (Hartrees-Bohrs-Radians)
 RMS Force = .12828D-02 SwitMx=.10000D-02 MixMth= 1
 Mixed Optimization -- RFO/linear search
 Second derivative matrix not updated -- first step.
 ITU=  0
     Eigenvalues ---    0.00088   0.00256   0.00263   0.00328   0.00375
     Eigenvalues ---    0.00449   0.00581   0.01051   0.01335   0.02243
     Eigenvalues ---    0.04147   0.04283   0.04326   0.04372   0.04396
     Eigenvalues ---    0.04437   0.04474   0.04487   0.04512   0.04580
     Eigenvalues ---    0.04627   0.04724   0.04740   0.05159   0.05216
     Eigenvalues ---    0.05456   0.05725   0.05872   0.08621   0.08978
     Eigenvalues ---    0.11553   0.11781   0.11820   0.12104   0.12127
     Eigenvalues ---    0.13056   0.13186   0.13482   0.13861   0.14020
     Eigenvalues ---    0.14253   0.14572   0.14650   0.15017   0.16417
     Eigenvalues ---    0.18926   0.19377   0.19902   0.20440   0.21829
     Eigenvalues ---    0.23792   0.24433   0.24787   0.26836   0.27304
     Eigenvalues ---    0.28465   0.29125   0.30225   0.30800   0.32024
     Eigenvalues ---    0.32277   0.33772   0.33889   0.33910   0.33940
     Eigenvalues ---    0.33977   0.34038   0.34108   0.34203   0.34330
     Eigenvalues ---    0.34337   0.34478   0.34598   0.34780   0.34834
     Eigenvalues ---    0.34908   0.35173   0.35427   0.39717   0.41258
     Eigenvalues ---    0.44528
 RFO step:  Lambda=-2.04020824D-03 EMin= 8.78530057D-04
 Linear search not attempted -- first point.
 Iteration  1 RMS(Cart)=  0.08210076 RMS(Int)=  0.00208494
 Iteration  2 RMS(Cart)=  0.00347296 RMS(Int)=  0.00017718
 Iteration  3 RMS(Cart)=  0.00000253 RMS(Int)=  0.00017717
 Iteration  4 RMS(Cart)=  0.00000000 RMS(Int)=  0.00017717
 ITry= 1 IFail=0 DXMaxC= 4.13D-01 DCOld= 1.00D+10 DXMaxT= 3.00D-01 DXLimC= 3.00D+00 Rises=F
 Variable       Old X    -DE/DX   Delta X   Delta X   Delta X     New X
                                 (Linear)    (Quad)   (Total)
    R1        3.46556  -0.00081   0.00000  -0.00264  -0.00264   3.46292
    R2        2.53942  -0.00060   0.00000  -0.00121  -0.00121   2.53821
    R3        2.87628  -0.00074   0.00000   0.00977   0.00977   2.88605
    R4        2.05874   0.00036   0.00000   0.00110   0.00110   2.05984
    R5        2.05815   0.00043   0.00000   0.00135   0.00135   2.05949
    R6        2.08154   0.00118   0.00000   0.00593   0.00593   2.08747
    R7        2.75668  -0.00282   0.00000  -0.01202  -0.01202   2.74467
    R8        2.06493  -0.00010   0.00000   0.00005   0.00005   2.06498
    R9        2.78759  -0.00216   0.00000  -0.01588  -0.01588   2.77172
   R10        2.79788  -0.00282   0.00000  -0.01568  -0.01568   2.78219
   R11        2.89777   0.00172   0.00000   0.00450   0.00450   2.90227
   R12        2.06488   0.00018   0.00000   0.00122   0.00122   2.06611
   R13        2.88791  -0.00087   0.00000  -0.00145  -0.00145   2.88645
   R14        2.88894  -0.00026   0.00000   0.00113   0.00113   2.89006
   R15        2.90343   0.00154   0.00000   0.00212   0.00212   2.90555
   R16        2.06300   0.00015   0.00000   0.00160   0.00160   2.06460
   R17        2.06764  -0.00062   0.00000  -0.00137  -0.00137   2.06628
   R18        2.06598   0.00005   0.00000  -0.00007  -0.00007   2.06591
   R19        2.06366  -0.00085   0.00000  -0.00275  -0.00275   2.06092
   R20        2.06651  -0.00028   0.00000  -0.00043  -0.00043   2.06608
   R21        2.06065  -0.00017   0.00000   0.00099   0.00099   2.06164
   R22        2.06536  -0.00031   0.00000  -0.00077  -0.00077   2.06459
   R23        2.06500  -0.00004   0.00000   0.00079   0.00079   2.06579
   R24        2.06565  -0.00035   0.00000  -0.00082  -0.00082   2.06483
   R25        2.06725  -0.00029   0.00000  -0.00022  -0.00022   2.06703
   R26        2.06533  -0.00023   0.00000   0.00008   0.00008   2.06541
   R27        2.06553  -0.00014   0.00000  -0.00051  -0.00051   2.06502
   R28        2.06381  -0.00059   0.00000  -0.00227  -0.00227   2.06154
    A1        1.67089  -0.00144   0.00000  -0.00399  -0.00399   1.66691
    A2        1.92540  -0.00540   0.00000  -0.02015  -0.02017   1.90523
    A3        1.89398   0.00259   0.00000   0.01504   0.01504   1.90902
    A4        1.90532   0.00191   0.00000   0.00550   0.00539   1.91071
    A5        1.89342   0.00087   0.00000   0.00262   0.00269   1.89610
    A6        1.95666   0.00064   0.00000  -0.00211  -0.00214   1.95452
    A7        1.88767  -0.00044   0.00000   0.00015   0.00010   1.88778
    A8        1.86574   0.00256   0.00000   0.01730   0.01736   1.88309
    A9        1.99458  -0.00561   0.00000  -0.01401  -0.01410   1.98048
   A10        1.88618   0.00070   0.00000  -0.01143  -0.01156   1.87463
   A11        1.96805   0.00218   0.00000   0.00931   0.00935   1.97740
   A12        1.86432  -0.00067   0.00000   0.00125   0.00132   1.86563
   A13        1.87941   0.00104   0.00000  -0.00256  -0.00278   1.87664
   A14        1.98386   0.00034   0.00000   0.01752   0.01629   2.00015
   A15        1.96036   0.00053   0.00000   0.02607   0.02502   1.98537
   A16        2.00542   0.00110   0.00000   0.01908   0.01789   2.02331
   A17        2.01044   0.00177   0.00000  -0.00473  -0.00466   2.00578
   A18        1.84265   0.00017   0.00000   0.00308   0.00305   1.84570
   A19        1.94749  -0.00326   0.00000  -0.01503  -0.01502   1.93247
   A20        1.87696  -0.00049   0.00000   0.00292   0.00290   1.87986
   A21        1.92229   0.00187   0.00000   0.01687   0.01684   1.93913
   A22        1.85419  -0.00020   0.00000  -0.00307  -0.00315   1.85104
   A23        1.92803  -0.00370   0.00000  -0.00467  -0.00466   1.92338
   A24        2.01418   0.00169   0.00000  -0.00555  -0.00554   2.00864
   A25        1.85706   0.00037   0.00000  -0.00051  -0.00053   1.85653
[...]
 024224,0.00077910,-0.21771404,-0.09437464,-0.08602613,-0.00350677,0.00
 208293,0.00357087,0.00114691,0.00017387,-0.00155096,0.00038634,-0.0000
 4415,0.00109642,-0.00003778,0.00007593,0.00006142,0.00034177,0.0003146
 1,-0.00000563,-0.00169508,-0.00035896,-0.00031700,0.00427343,0.0022130
 3,0.00261571,0.23853965,0.00004182,0.00000178,0.00001722,-0.00001965,0
 .00001301,-0.00006141,-0.00001655,-0.00000930,-0.00001575,0.00013556,-
 0.00016089,0.00046021,-0.00002679,-0.00001390,-0.00000587,-0.00000773,
 -0.00001475,-0.00000150,0.00009199,-0.00000760,-0.00016109,-0.00079931
 ,0.00075501,0.00058232,0.00006257,0.00000650,-0.00006698,0.00732828,0.
 00366216,0.00377783,0.00046191,-0.00042339,-0.00016933,-0.00001063,-0.
 00003425,0.00002613,0.00004106,-0.00061219,0.00012704,0.00034508,-0.00
 056221,-0.00062255,-0.09517218,-0.09781182,-0.04672923,0.00178191,0.00
 050162,-0.00087556,-0.00032309,-0.00007410,0.00042694,-0.00033204,0.00
 015034,0.00019046,-0.00014133,-0.00010275,-0.00008029,0.00011832,-0.00
 002152,0.00018394,0.00852121,0.00336353,0.00360998,-0.02611063,-0.0129
 9329,-0.01328008,0.10393642,0.10520292,-0.00004520,0.00000937,0.000076
 22,0.00009181,0.00012278,0.00000250,-0.00000642,-0.00001867,0.00000077
 ,0.00001163,0.00012861,-0.00058243,-0.00001053,-0.00004884,-0.00001187
 ,0.00002710,-0.00002261,-0.00006733,-0.00015813,-0.00002029,0.00023416
 ,-0.00124046,0.00024223,0.00034401,-0.00013347,0.00003491,0.00010641,0
 .01429410,0.00940037,0.00654161,-0.00007301,-0.00076653,0.00051827,0.0
 0010814,0.00014322,-0.00012513,-0.00022671,0.00014942,0.00029032,0.000
 16288,-0.00059181,-0.00039552,-0.08541186,-0.04640670,-0.08927870,0.00
 333125,-0.00086803,-0.00136552,0.00052712,0.00065236,0.00188362,-0.000
 36487,-0.00036988,-0.00014664,-0.00003282,0.00006627,-0.00002997,-0.00
 021728,-0.00005313,0.00011194,-0.02433503,-0.01468767,-0.01115049,0.00
 208689,0.00090109,-0.00036231,0.09147036,0.05203390,0.09430721,-0.0000
 2948,-0.00001320,0.00002394,0.00003853,-0.00014843,0.00025908,0.000018
 62,0.00000239,0.00001358,-0.00139537,-0.00113925,-0.00027247,0.0000461
 7,0.00001574,0.00000779,-0.00000796,-0.00000760,-0.00002353,-0.0003943
 6,0.00033174,-0.00006635,0.00091368,0.00091375,-0.00072446,-0.00172592
 ,-0.00100123,-0.00001819,0.00003697,-0.00006436,0.00003517,0.01125753,
 -0.01061723,0.01168850,0.00138233,-0.00077044,-0.00053952,-0.12950088,
 0.08774029,-0.08832489,-0.00138946,-0.00152382,0.00326223,-0.00010938,
 0.00010247,-0.00010286,0.00001998,0.00000841,-0.00002674,0.00009444,0.
 00002010,0.00006934,-0.00009503,-0.00002418,-0.00004482,-0.00005361,-0
 .00000844,-0.00005015,-0.00000033,-0.00000138,-0.00000653,-0.00003462,
 -0.00001469,-0.00007253,0.00005989,0.00006284,-0.00000562,0.00006145,-
 0.00008857,0.00013831,0.14195146,0.00015883,0.00005564,0.00007220,-0.0
 0027407,0.00022578,-0.00031678,0.00002579,-0.00000367,-0.00010007,0.00
 044664,-0.00074729,0.00050287,-0.00004418,-0.00002462,-0.00002016,0.00
 016179,0.00009958,-0.00002533,-0.00013410,-0.00054879,-0.00048616,0.00
 007947,0.00062696,-0.00024056,-0.00082583,0.00052944,0.00024134,0.0001
 5839,-0.00019969,-0.00014130,0.00786545,-0.00773243,0.00752281,-0.0001
 5713,0.00049361,-0.00120364,0.08716497,-0.13642800,0.09115001,-0.00171
 530,-0.00012285,0.00149203,0.00020234,-0.00017648,0.00023445,-0.000065
 82,-0.00007106,0.00001356,0.00002083,0.00005049,0.00008927,-0.00009880
 ,-0.00000656,-0.00010258,-0.00006754,-0.00000099,-0.00005565,-0.000012
 97,-0.00001316,0.00003427,0.00012207,0.00000310,0.00007281,-0.00019975
 ,-0.00010687,0.00001576,-0.00029210,0.00009321,-0.00019785,-0.09429020
 ,0.14477363,-0.00004715,-0.00001331,-0.00006738,0.00022383,-0.00043791
 ,0.00018230,-0.00000276,-0.00000626,0.00003723,-0.00106908,0.00078310,
 0.00053818,0.00006466,0.00004397,0.00000618,-0.00013759,-0.00007141,0.
 00000847,0.00017552,-0.00007161,0.00004463,-0.00013767,-0.00101167,0.0
 0042261,0.00022640,-0.00059975,0.00026649,0.00015469,-0.00020499,-0.00
 015505,-0.01532377,0.01395958,-0.01681849,-0.00128984,0.00062496,0.001
 25106,-0.08796376,0.09110507,-0.14018185,0.00368462,0.00160859,-0.0029
 1928,0.00002603,-0.00023932,0.00010583,-0.00000461,0.00009571,0.000053
 64,-0.00020885,0.00006182,-0.00010860,0.00016574,0.00000867,0.00014348
 ,0.00009429,0.00006825,0.00004800,0.00001702,0.00000403,0.00001237,0.0
 0005524,0.00005548,0.00009910,-0.00006371,-0.00007556,0.00001085,-0.00
 004857,-0.00000296,-0.00015534,0.09601541,-0.10195208,0.15286268,0.000
 10229,0.00005562,0.00001572,-0.00003673,-0.00019987,-0.00023201,0.0000
 3960,-0.00003199,-0.00005664,-0.00058108,0.00056763,0.00034747,0.00000
 965,0.00000059,-0.00000402,-0.00003300,-0.00001876,-0.00001749,-0.0004
 4309,-0.00029466,-0.00051854,0.00129494,0.00045088,-0.00119885,0.00011
 862,-0.00014199,0.00012430,-0.00043563,-0.00026148,0.00023840,-0.00786
 041,0.01450946,0.00868370,-0.00144848,-0.00282456,0.00307473,-0.092383
 81,0.08096246,0.06036552,0.00044353,-0.00029975,-0.00039368,-0.0000212
 6,0.00035832,0.00043377,0.00002953,-0.00000915,-0.00001108,0.00014002,
 -0.00004070,0.00002992,-0.00006500,0.00000750,-0.00003419,-0.00002377,
 -0.00002338,-0.00000734,0.00002399,0.00002237,-0.00005107,-0.00000946,
 -0.00050347,-0.00049913,0.00016939,0.00019165,-0.00026946,0.00032016,0
 .00027977,-0.00003953,-0.00766795,0.01265785,0.01074188,0.09655112,-0.
 00006989,-0.00000408,0.00000010,-0.00002165,0.00010918,0.00013255,0.00
 001739,-0.00000842,0.00002909,-0.00006511,-0.00025709,-0.00062171,0.00
 001830,-0.00000875,0.00000330,0.00000745,0.00001081,-0.00001312,-0.000
 18373,0.00012894,0.00021119,0.00107825,0.00118080,-0.00070240,-0.00005
 621,0.00005955,-0.00000991,-0.00006293,0.00017654,0.00008970,-0.006026
 12,0.01072267,0.00756204,-0.00139680,-0.00058122,0.00177610,0.08204141
 ,-0.19161418,-0.10976330,0.00057747,0.00032598,-0.00067947,0.00002272,
 -0.00192064,0.00040962,0.00004959,0.00004378,-0.00004063,0.00009256,-0
 .00005441,-0.00000046,-0.00001220,-0.00000229,0.00000468,-0.00000614,0
 .00000969,-0.00000160,0.00001176,0.00001354,-0.00004987,-0.00011175,-0
 .00087825,-0.00005083,-0.00014298,-0.00014678,0.00010835,-0.00014818,-
 0.00087127,0.00031440,0.00562795,-0.01297123,-0.01013099,-0.08851098,0
 .20812990,0.00000342,-0.00000323,-0.00004840,0.00000699,-0.00008848,-0
 .00005130,-0.00001408,0.00002990,0.00002139,0.00032809,0.00030580,0.00
 055607,-0.00000109,0.00001600,0.00000760,0.00000524,0.00002389,0.00002
 036,0.00027203,-0.00009520,0.00001550,-0.00162931,0.00013124,0.0014631
 6,-0.00001315,0.00004825,-0.00004055,0.00060386,-0.00010534,-0.0002762
 8,0.00781562,-0.02025689,-0.01281802,0.00238476,0.00352751,-0.00355688
 ,0.06067467,-0.10783130,-0.12884566,-0.00065542,-0.00019882,0.00037471
 ,0.00043745,-0.00035450,0.00043155,-0.00013903,0.00012772,0.00006242,-
 0.00007433,0.00005173,-0.00001199,0.00005460,-0.00003385,-0.00001531,0
 .00000806,0.00004406,-0.00000994,-0.00005079,-0.00003291,0.00004907,-0
 .00002174,-0.00034037,0.00028811,-0.00041004,-0.00025240,0.00010509,-0
 .00038749,0.00063644,-0.00065922,-0.00756063,0.01484260,0.01190038,-0.
 06798234,0.11865603,0.13836635,0.00006920,-0.00005391,-0.00001128,0.00
 014405,-0.00004765,-0.00003093,-0.00006145,0.00003455,-0.00001161,0.00
 042819,0.00012002,0.00112306,-0.00004274,-0.00000890,-0.00000709,-0.00
 005279,-0.00004529,0.00005269,0.00020868,0.00013649,-0.00016589,-0.002
 21043,-0.00229302,0.00250274,0.00016773,-0.00030638,-0.00010811,-0.000
 85691,0.00078431,0.00012846,-0.01164620,-0.00799804,-0.00909986,0.0000
 7569,-0.00012084,-0.00084611,-0.19194752,-0.11069339,-0.07481372,0.000
 92061,0.00000020,0.00005224,0.00013031,0.00009901,0.00015016,0.0000583
 1,-0.00020889,0.00001009,0.00005522,-0.00018850,-0.00004046,0.00002122
 ,0.00000843,0.00002020,0.00002985,-0.00004130,0.00007324,-0.00000741,0
 .00001139,-0.00003980,-0.00004163,-0.00000142,-0.00011056,0.00007192,0
 .00000720,-0.00009649,0.00002663,-0.00004897,0.00000879,-0.01334312,-0
 .01039071,-0.00623905,0.01146877,0.00773884,0.00522126,0.20591007,0.00
 010191,-0.00001402,0.00002123,-0.00011117,0.00017816,-0.00014532,-0.00
 005284,0.00001489,-0.00004888,0.00126708,-0.00033033,0.00090868,-0.000
 06403,-0.00003112,-0.00001881,0.00005911,0.00002900,0.00000308,0.00032
 263,-0.00006366,-0.00011812,-0.00298688,-0.00096114,0.00285609,-0.0001
 4707,0.00030017,0.00006029,-0.00030622,0.00082202,-0.00012154,-0.00791
 586,-0.00816962,-0.00617769,0.00051944,-0.00000310,-0.00046748,-0.1113
 1319,-0.13112299,-0.05856354,0.00026858,-0.00012829,-0.00009910,0.0000
 7929,-0.00031591,-0.00020760,0.00002691,-0.00014707,-0.00001297,-0.000
 06538,-0.00009100,-0.00006748,0.00004082,0.00000959,0.00004026,0.00004
 448,-0.00002620,0.00003528,0.00000182,0.00001934,-0.00000211,0.0001407
 3,0.00008626,0.00021133,-0.00006866,-0.00007301,0.00013868,-0.00001148
 ,-0.00011619,-0.00013871,0.01465805,0.01168102,0.00715675,-0.01787643,
 -0.01235528,-0.00790571,0.12283580,0.14033240,-0.00025192,0.00001566,-
 0.00002182,0.00017938,-0.00012708,0.00036987,0.00003182,-0.00004121,0.
 00008791,-0.00089024,0.00014183,-0.00149422,0.00008329,0.00004613,0.00
 003153,-0.00006983,-0.00003404,-0.00000145,-0.00017586,0.00021836,0.00
 052841,0.00459585,0.00366503,-0.00300902,0.00020589,-0.00026947,-0.000
 07382,0.00091956,-0.00086601,-0.00008237,0.01760805,0.01331396,0.01035
 359,-0.00026765,-0.00014622,0.00046923,-0.07592920,-0.05900818,-0.0855
 1102,-0.00067461,0.00001555,0.00116879,-0.00014953,-0.00009339,-0.0001
 5864,-0.00006520,0.00023655,0.00001858,-0.00002736,0.00011495,0.000067
 85,-0.00003505,-0.00000534,-0.00002748,-0.00003729,0.00001262,-0.00006
 081,-0.00000485,-0.00000519,0.00003759,0.00004310,0.00007907,0.0001766
 2,-0.00008656,-0.00003078,0.00012844,-0.00011690,-0.00003525,-0.000058
 54,-0.01296276,-0.01156904,-0.00773963,-0.01344268,-0.00804476,-0.0070
 6659,0.08132343,0.06259756,0.09216146,0.00009691,0.00006721,0.00004401
 ,0.00019138,-0.00017649,0.00002090,-0.00000869,0.00009975,0.00005432,0
 .00017955,0.00031136,-0.00078311,0.00002982,0.00001950,0.00001810,-0.0
 0010875,-0.00004048,0.00004615,-0.00000942,-0.00017661,0.00010872,0.00
 022679,-0.00079139,0.00057711,0.00041769,-0.00064311,-0.00039545,0.000
 00775,-0.00007343,0.00004506,-0.01121795,0.00717778,-0.00902247,-0.163
 27881,0.08536030,-0.10122990,0.00026110,0.00007750,-0.00115894,-0.0002
 5396,0.00177573,0.00209656,-0.00008658,-0.00005761,-0.00005473,0.00002
 687,0.00006066,0.00000318,-0.00010515,0.00002631,-0.00003979,0.0000512
 8,0.00002364,0.00009628,0.00005437,0.00003079,0.00000549,0.00004871,0.
 00002606,-0.00000504,0.00002509,0.00002660,0.00004535,0.00001979,0.000
 01232,0.00002415,0.00007122,-0.00001035,-0.00001463,-0.00015560,-0.000
 16342,0.00080060,0.00031024,-0.00021399,0.00023547,0.00000882,0.000109
 95,-0.00000668,0.17612200,0.00016213,-0.00013845,0.00004515,-0.0002045
 7,0.00015207,-0.00017550,-0.00002073,0.00021423,-0.00001461,0.00015637
 ,-0.00098754,0.00003808,-0.00004212,-0.00003150,-0.00001688,0.00011637
 ,0.00009579,0.00003139,-0.00007363,0.00025806,-0.00007140,-0.00039890,
 0.00211177,0.00054259,-0.00033615,-0.00007326,-0.00146588,-0.00000883,
 -0.00016325,0.00025229,0.01771484,-0.01348961,0.01529124,0.08461341,-0
 .10746728,0.07354464,-0.00143820,0.00043188,0.00083307,0.00204205,-0.0
 0301071,-0.00333877,0.00007402,0.00017770,0.00002706,-0.00004370,-0.00
 007490,-0.00002549,0.00001768,0.00005848,0.00007668,-0.00011842,0.0000
 7328,-0.00015222,-0.00005885,-0.00003684,-0.00006896,0.00001419,-0.000
 01157,0.00002194,0.00000652,-0.00002927,-0.00005905,-0.00010889,0.0000
 0233,-0.00001238,-0.00016506,0.00003328,-0.00000153,0.00021121,0.00062
 576,-0.00051261,-0.00024368,0.00000088,-0.00010906,-0.00010418,0.00001
 285,-0.00007862,-0.09597750,0.11614715,-0.00012361,0.00015667,0.000033
 07,-0.00014222,0.00014997,0.00014286,0.00002309,-0.00016308,-0.0000619
 2,0.00011916,-0.00049912,-0.00055298,-0.00000213,0.00000239,-0.0000318
 1,0.00007703,0.00002211,-0.00007516,0.00005767,-0.00015154,0.00007994,
 -0.00016104,0.00150935,0.00049730,-0.00045590,-0.00127507,-0.00136896,
 0.00009549,-0.00002708,0.00014976,0.01283902,-0.00828597,0.01018313,-0
 .10146153,0.07366680,-0.13397188,-0.00018349,-0.00024010,0.00191569,0.
 00186610,-0.00294074,-0.00114362,0.00005104,0.00000495,0.00003639,-0.0
 0001955,0.00006536,0.00001792,0.00003428,0.00001405,0.00002713,0.00004
 091,-0.00005963,-0.00006201,-0.00002182,0.00002007,0.00001282,-0.00009
 029,-0.00004839,-0.00000908,-0.00002829,-0.00000648,-0.00001689,-0.000
 05142,-0.00000303,-0.00001629,-0.00007305,-0.00000816,-0.00000726,-0.0
 0038192,0.00027624,-0.00012788,-0.00025037,0.00006299,0.00008885,0.000
 05126,0.00004838,-0.00008528,0.11126343,-0.07812595,0.14512498,-0.0000
 8167,0.00013576,0.00005746,-0.00001041,-0.00008010,0.00008913,0.000010
 09,-0.00017338,-0.00006133,-0.00006380,0.00048344,0.00012524,0.0000232
 9,0.00001457,-0.00001999,-0.00002302,-0.00003619,-0.00004424,0.0000036
 1,-0.00006508,0.00003893,0.00037121,0.00261054,0.00124927,0.00000248,-
 0.00013857,0.00022281,0.00043179,0.00052763,0.00031623,0.00977512,0.00
 878428,0.00491300,-0.17280550,-0.12064307,-0.05762255,0.00006431,0.000
 02659,0.00003729,0.00062133,-0.00060972,-0.00061354,0.00006336,-0.0001
 1189,-0.00001995,-0.00000993,0.00019321,-0.00002636,-0.00003877,-0.000
 04271,0.00002877,-0.00001341,-0.00000690,-0.00002083,0.00001384,-0.000
 02161,-0.00001410,0.00001728,0.00003449,-0.00002219,-0.00001864,0.0000
 0527,0.00000653,0.00001272,-0.00003046,-0.00000698,-0.00001909,0.00000
 139,0.00000642,-0.00006478,-0.00020397,-0.00003809,0.00024190,0.000103
 05,-0.00021392,0.00002480,0.00026703,0.00049126,-0.01410580,-0.0143550
 8,-0.00534747,0.18544725,0.00020144,-0.00001006,0.00005915,0.00000777,
 0.00000888,-0.00016668,-0.00004228,0.00006253,-0.00003580,0.00071041,-
 0.00068746,0.00082045,-0.00006023,-0.00001875,-0.00000493,0.00003481,0
 .00000981,0.00002181,-0.00012026,0.00015565,-0.00044069,0.00110746,-0.
 00590304,-0.00294836,-0.00002479,0.00024128,-0.00008288,-0.00067299,0.
 00046130,-0.00140516,-0.01826885,-0.01247383,-0.00447987,-0.11881076,-
 0.16190306,-0.05605805,-0.00081299,0.00058080,0.00059467,-0.00010733,0
 .00023985,0.00078193,-0.00002684,-0.00033565,0.00006375,0.00006394,-0.
 00039785,0.00000977,-0.00001478,-0.00000129,-0.00002170,0.00003462,0.0
 0000071,0.00005109,0.00003693,-0.00004223,0.00003205,0.00001901,0.0000
 4218,-0.00001141,-0.00002301,0.00000978,-0.00002845,0.00014811,-0.0000
 4456,-0.00005442,0.00005603,0.00001873,0.00002901,0.00012666,-0.000027
 23,-0.00005422,0.00025610,0.00011892,0.00034553,0.00057698,0.00049080,
 -0.00023718,0.01115759,0.01159073,0.00482487,0.13118428,0.17565746,-0.
 00000337,-0.00009833,-0.00006492,0.00008746,-0.00001731,-0.00009390,-0
 .00001495,0.00004138,0.00005544,0.00023898,-0.00005462,0.00051976,-0.0
 0004234,0.00000121,0.00002373,-0.00003941,-0.00003476,0.00004538,0.000
 01948,-0.00009429,-0.00003072,0.00075307,-0.00383753,-0.00036014,0.000
 07300,0.00002926,0.00030536,-0.00056496,-0.00001414,-0.00084172,-0.012
 58874,-0.00717713,-0.00533240,-0.05599830,-0.05528287,-0.07524223,-0.0
 0046957,0.00012272,0.00027790,0.00016386,0.00031361,0.00049300,-0.0000
 1282,-0.00010543,0.00004889,0.00007119,-0.00028777,0.00001280,0.000094
 07,0.00003178,-0.00007566,0.00002830,0.00001103,0.00003109,-0.00001238
 ,-0.00001326,0.00005447,-0.00003669,-0.00004559,-0.00000531,-0.0000260
 1,-0.00000472,-0.00002551,0.00007781,-0.00000563,-0.00003518,0.0000375
 4,0.00000347,0.00002971,-0.00013768,0.00001015,-0.00014699,0.00005775,
 0.00027310,0.00027452,0.00079701,-0.00013821,-0.00038995,-0.01183913,-
 0.01297233,-0.00654320,0.06235423,0.06279840,0.07658874,0.00003979,-0.
 00013947,-0.00010315,0.00014908,0.00004917,-0.00009838,-0.00001946,0.0
 0011056,0.00011072,0.00005400,0.00015082,-0.00027207,-0.00001934,0.000
 01309,0.00002990,-0.00004530,-0.00000130,0.00008262,-0.00008453,-0.000
 17792,-0.00017381,0.00041572,-0.00059036,-0.00161898,0.00002946,-0.000
 05249,0.00005481,0.00014248,-0.00003830,0.00003334,-0.00878860,-0.0067
 5187,0.01164285,-0.10927422,-0.05105839,0.10348259,-0.00095458,0.00333
 601,0.00137222,0.00002527,-0.00043445,-0.00020715,-0.00003678,0.000017
 05,-0.00001183,-0.00000388,0.00003828,-0.00005327,0.00007513,0.0000343
 7,0.00002047,-0.00016005,0.00010675,0.00001499,-0.00002344,-0.00004629
 ,-0.00006675,0.00008981,0.00004843,0.00002866,-0.00000966,-0.00002602,
 -0.00006367,0.00002284,0.00003592,-0.00000539,0.00001925,-0.00003948,0
 .00004515,0.00008681,-0.00012853,0.00012857,-0.00025407,-0.00035809,0.
 00110184,0.00039013,0.00017556,-0.00028747,0.01118133,0.00856970,-0.01
 772440,-0.00986955,-0.00673701,0.01693259,0.11682239,-0.00016114,0.000
 02413,-0.00008166,-0.00002717,-0.00001183,0.00010353,0.00000210,-0.000
 08708,0.00002017,-0.00015450,-0.00004892,-0.00014165,0.00000762,0.0000
 0396,0.00000513,0.00002174,0.00000644,-0.00003717,0.00006011,0.0000245
 5,0.00015826,0.00074832,0.00207645,0.00071675,-0.00001535,0.00000058,-
 0.00001204,0.00018137,-0.00017198,0.00001713,0.01213149,0.00839388,-0.
 02143517,-0.05293339,-0.08839144,0.08638656,0.00160049,-0.00376261,-0.
 00242253,-0.00038443,0.00116984,0.00054421,-0.00000724,0.00005686,0.00
 003028,-0.00001064,0.00004627,0.00003280,0.00001208,0.00010750,-0.0000
 7909,0.00011286,0.00001302,0.00004087,-0.00002513,0.00005961,0.0000833
 5,-0.00015694,-0.00016216,0.00005192,0.00000780,0.00002259,0.00005353,
 -0.00003688,-0.00000188,0.00000923,-0.00002623,0.00002734,-0.00003568,
 -0.00010859,-0.00007733,-0.00019132,0.00096067,0.00064272,-0.00117865,
 0.00019818,-0.00002760,0.00013448,-0.00803867,-0.00647208,0.01101014,-
 0.00785280,-0.00784437,0.01654779,0.05389427,0.09438354,-0.00012732,-0
 .00030197,-0.00026101,0.00017281,-0.00007884,-0.00012686,-0.00000662,0
 .00018450,0.00019094,-0.00017697,0.00029522,-0.00056090,-0.00002225,0.
 00001499,0.00005893,-0.00010090,-0.00001667,0.00009650,0.00000105,-0.0
 0006509,0.00022683,-0.00068958,0.00125958,0.00169430,0.00022844,-0.000
 10702,0.00008771,0.00000621,-0.00031667,0.00000932,0.00771923,0.007290
 14,-0.01367241,0.10246394,0.08361908,-0.21615116,0.00121172,-0.0037639
 4,-0.00104330,-0.00021882,-0.00011511,0.00080834,0.00002903,0.00009641
 ,0.00001182,-0.00000249,-0.00003979,0.00001171,0.00015571,-0.00004217,
 -0.00005750,-0.00001177,-0.00010664,-0.00005749,-0.00006160,0.00003541
 ,0.00003932,-0.00006856,-0.00012324,0.00006358,0.00001686,0.00002254,0
 .00006344,-0.00006659,-0.00001644,0.00002185,-0.00006636,0.00004015,-0
 .00005046,-0.00019170,-0.00015918,0.00042701,0.00089526,0.00047581,-0.
 00062497,0.00010632,0.00015567,0.00018076,0.00906496,0.00649711,-0.014
 23562,-0.00586504,-0.00440268,0.01042705,-0.11439499,-0.09033117,0.232
 42229\\-0.00000013,0.00000460,-0.00000045,-0.00000018,0.00000282,-0.00
 000032,-0.00000038,0.00000619,-0.00000064,0.00000074,0.00000087,-0.000
 00027,0.00000066,0.00000336,-0.00000059,-0.00000166,0.00000269,0.00000
 013,0.00000052,-0.00000024,-0.00000012,0.00000009,0.00000030,-0.000000
 13,0.00000227,0.00000103,-0.00000076,-0.00000196,-0.00000022,0.0000006
 0,0.00000135,-0.00000098,-0.00000025,0.00000283,0.00000026,-0.00000084
 ,0.00000236,-0.00000264,-0.00000037,0.00000053,-0.00000170,0.00000007,
 -0.00000239,-0.00000234,0.00000095,-0.00000271,0.00000080,0.00000068,-
 0.00000286,0.00000021,0.00000077,-0.00000223,-0.00000078,0.00000071,-0
 .00000435,0.00000004,0.00000122,-0.00000251,0.00000172,0.00000051,-0.0
 0000179,-0.00000267,0.00000083,-0.00000395,-0.00000252,0.00000141,-0.0
 0000180,-0.00000344,0.00000091,0.00000340,-0.00000205,-0.00000070,0.00
 000136,-0.00000351,0.00000003,0.00000319,-0.00000363,-0.00000047,0.000
 00370,0.00000106,-0.00000116,0.00000381,-0.00000063,-0.00000099,0.0000
 0211,0.00000141,-0.00000076\\\@


 Everything starts as somebody's daydream.
                           -- Larry Niven
 Job cpu time:       0 days  7 hours 56 minutes 19.9 seconds.
 File lengths (MBytes):  RWF=    333 Int=      0 D2E=      0 Chk=     20 Scr=      1
 Normal termination of Gaussian 09 at Wed Nov 27 12:08:38 2019.
