 Entering Gaussian System, Link 0=g09
 Input=/rdsgpfs/general/user/smf115/home/vxHydrolysis/ReactionSMD/Diffuse/reacProd/empa_sp.com
 Output=/rdsgpfs/general/user/smf115/home/vxHydrolysis/ReactionSMD/Diffuse/reacProd/empa_sp.log
 Initial command:
 /apps/gaussian/g09_d01/g09/l1.exe "/tmp/pbs.775159.pbs/Gau-15008.inp" -scrdir="/tmp/pbs.775159.pbs/"
 Entering Link 1 = /apps/gaussian/g09_d01/g09/l1.exe PID=     15009.
  
 Copyright (c) 1988,1990,1992,1993,1995,1998,2003,2009,2013,
            Gaussian, Inc.  All Rights Reserved.
  
 This is part of the Gaussian(R) 09 program.  It is based on
 the Gaussian(R) 03 system (copyright 2003, Gaussian, Inc.),
 the Gaussian(R) 98 system (copyright 1998, Gaussian, Inc.),
 the Gaussian(R) 94 system (copyright 1995, Gaussian, Inc.),
 the Gaussian 92(TM) system (copyright 1992, Gaussian, Inc.),
 the Gaussian 90(TM) system (copyright 1990, Gaussian, Inc.),
 the Gaussian 88(TM) system (copyright 1988, Gaussian, Inc.),
 the Gaussian 86(TM) system (copyright 1986, Carnegie Mellon
 University), and the Gaussian 82(TM) system (copyright 1983,
 Carnegie Mellon University). Gaussian is a federally registered
 trademark of Gaussian, Inc.
  
 This software contains proprietary and confidential information,
 including trade secrets, belonging to Gaussian, Inc.
  
 This software is provided under written license and may be
 used, copied, transmitted, or stored only in accord with that
 written license.
  
 The following legend is applicable only to US Government
 contracts under FAR:
  
                    RESTRICTED RIGHTS LEGEND
  
 Use, reproduction and disclosure by the US Government is
 subject to restrictions as set forth in subparagraphs (a)
 and (c) of the Commercial Computer Software - Restricted
 Rights clause in FAR 52.227-19.
  
 Gaussian, Inc.
 340 Quinnipiac St., Bldg. 40, Wallingford CT 06492
  
  
 ---------------------------------------------------------------
 Warning -- This program may not be used in any manner that
 competes with the business of Gaussian, Inc. or will provide
 assistance to any competitor of Gaussian, Inc.  The licensee
 of this program is prohibited from giving any competitor of
 Gaussian, Inc. access to this program.  By using this program,
 the user acknowledges that Gaussian, Inc. is engaged in the
 business of creating and licensing software in the field of
 computational chemistry and represents and warrants to the
 licensee that it is not a competitor of Gaussian, Inc. and that
 it will not use this program in any manner prohibited above.
 ---------------------------------------------------------------
  

 Cite this work as:
 Gaussian 09, Revision D.01,
 M. J. Frisch, G. W. Trucks, H. B. Schlegel, G. E. Scuseria, 
 M. A. Robb, J. R. Cheeseman, G. Scalmani, V. Barone, B. Mennucci, 
 G. A. Petersson, H. Nakatsuji, M. Caricato, X. Li, H. P. Hratchian, 
 A. F. Izmaylov, J. Bloino, G. Zheng, J. L. Sonnenberg, M. Hada, 
 M. Ehara, K. Toyota, R. Fukuda, J. Hasegawa, M. Ishida, T. Nakajima, 
 Y. Honda, O. Kitao, H. Nakai, T. Vreven, J. A. Montgomery, Jr., 
 J. E. Peralta, F. Ogliaro, M. Bearpark, J. J. Heyd, E. Brothers, 
 K. N. Kudin, V. N. Staroverov, T. Keith, R. Kobayashi, J. Normand, 
 K. Raghavachari, A. Rendell, J. C. Burant, S. S. Iyengar, J. Tomasi, 
 M. Cossi, N. Rega, J. M. Millam, M. Klene, J. E. Knox, J. B. Cross, 
 V. Bakken, C. Adamo, J. Jaramillo, R. Gomperts, R. E. Stratmann, 
 O. Yazyev, A. J. Austin, R. Cammi, C. Pomelli, J. W. Ochterski, 
 R. L. Martin, K. Morokuma, V. G. Zakrzewski, G. A. Voth, 
 P. Salvador, J. J. Dannenberg, S. Dapprich, A. D. Daniels, 
 O. Farkas, J. B. Foresman, J. V. Ortiz, J. Cioslowski, 
 and D. J. Fox, Gaussian, Inc., Wallingford CT, 2013.
 
 ******************************************
 Gaussian 09:  ES64L-G09RevD.01 24-Apr-2013
                27-Nov-2019 
 ******************************************
 %Chk=empa_sp
 %NProcShared=12
 Will use up to   12 processors via shared memory.
 %Mem=45000MB
 ----------------------------------------------------------------------
 #P M062X/6-311++G(d,p) Opt(Tight,RCFC) Freq SCF(Conver=9) Int(Grid=Ult
 raFine) Geom(Check) Guess(Read)
 ----------------------------------------------------------------------
 1/7=10,10=5,14=-1,18=20,19=15,26=4,29=2,38=1/1,3;
 2/9=110,12=2,40=1/2;
 3/5=4,6=6,7=1111,11=2,14=-4,16=1,25=1,30=1,71=1,74=-55,75=-5,116=-2/1,2,3;
 4/5=1/1;
 5/5=2,6=9,38=6/2;
 6/7=2,8=2,9=2,10=2,28=1/1;
 7//1,2,3,16;
 1/7=10,14=-1,18=20,19=15,26=4/3(2);
 2/9=110/2;
 99//99;
 2/9=110/2;
 3/5=4,6=6,7=1111,11=2,14=-2,16=1,25=1,30=1,71=1,74=-55,75=-5/1,2,3;
 4/5=5,16=3,69=1/1;
 5/5=2,6=9,38=5/2;
 7//1,2,3,16;
 1/7=10,14=-1,18=20,19=15,26=4/3(-5);
 2/9=110/2;
 6/7=2,8=2,9=2,10=2,19=2,28=1/1;
 99/9=1/99;
 Leave Link    1 at Wed Nov 27 10:43:15 2019, MaxMem=  5898240000 cpu:         0.8
 (Enter /apps/gaussian/g09_d01/g09/l101.exe)
 -----------
 empa_sp own
 -----------
 Structure from the checkpoint file:  "empa_sp.chk"
 Charge =  0 Multiplicity = 1
 Redundant internal coordinates found in file.
 P,0,-0.7112811196,0.0639187367,-0.1325795004
 C,0,-2.2090823443,-0.7130884784,0.4186441506
 O,0,0.4365050398,-0.8527587178,0.5070228368
 O,0,-0.7078673052,1.4419344149,0.6978310026
 C,0,1.7838091573,-0.8594659567,-0.0312719663
 H,0,-0.097180223,2.1140478248,0.3604905137
 H,0,-2.2840682819,-1.7008913546,-0.0361967091
 H,0,-3.0579436499,-0.1015145286,0.111499585
 H,0,-2.1966019925,-0.8073526617,1.5048905721
 C,0,2.4826390935,0.4668964069,0.172275403
 H,0,1.7299077236,-1.1277641566,-1.0877061702
 H,0,2.2868867363,-1.6587139092,0.509384966
 H,0,2.0176842229,1.2610014888,-0.4173178722
 H,0,3.5212539807,0.3752119066,-0.1520884195
 H,0,2.4713918239,0.7521032854,1.2259504608
 O,0,-0.5334198616,0.2715196995,-1.6006568528
 Recover connectivity data from disk.
 NAtoms=     16 NQM=       16 NQMF=       0 NMMI=      0 NMMIF=      0
                NMic=       0 NMicF=      0.
                    Isotopes and Nuclear Properties:
 (Nuclear quadrupole moments (NQMom) in fm**2, nuclear magnetic moments (NMagM)
  in nuclear magnetons)

  Atom         1           2           3           4           5           6           7           8           9          10
 IAtWgt=          31          12          16          16          12           1           1           1           1          12
 AtmWgt=  30.9737634  12.0000000  15.9949146  15.9949146  12.0000000   1.0078250   1.0078250   1.0078250   1.0078250  12.0000000
 NucSpn=           1           0           0           0           0           1           1           1           1           0
 AtZEff= -12.9400000  -3.6000000  -5.6000000  -5.6000000  -3.6000000  -1.0000000  -1.0000000  -1.0000000  -1.0000000  -3.6000000
 NQMom=    0.0000000   0.0000000   0.0000000   0.0000000   0.0000000   0.0000000   0.0000000   0.0000000   0.0000000   0.0000000
 NMagM=    1.1316000   0.0000000   0.0000000   0.0000000   0.0000000   2.7928460   2.7928460   2.7928460   2.7928460   0.0000000
 AtZNuc=  15.0000000   6.0000000   8.0000000   8.0000000   6.0000000   1.0000000   1.0000000   1.0000000   1.0000000   6.0000000

  Atom        11          12          13          14          15          16
 IAtWgt=           1           1           1           1           1          16
 AtmWgt=   1.0078250   1.0078250   1.0078250   1.0078250   1.0078250  15.9949146
 NucSpn=           1           1           1           1           1           0
 AtZEff=  -1.0000000  -1.0000000  -1.0000000  -1.0000000  -1.0000000  -5.6000000
 NQMom=    0.0000000   0.0000000   0.0000000   0.0000000   0.0000000   0.0000000
 NMagM=    2.7928460   2.7928460   2.7928460   2.7928460   2.7928460   0.0000000
 AtZNuc=   1.0000000   1.0000000   1.0000000   1.0000000   1.0000000   8.0000000
 Leave Link  101 at Wed Nov 27 10:43:16 2019, MaxMem=  5898240000 cpu:         9.5
 (Enter /apps/gaussian/g09_d01/g09/l103.exe)

 GradGradGradGradGradGradGradGradGradGradGradGradGradGradGradGradGradGrad
 Berny optimization.
 Initialization pass.
 Cartesian force constants read from checkpoint file:
 "empa_sp.chk"
 FormGI is forming the generalized inverse of G from B-inverse, IUseBI=4.
                           ----------------------------
                           !    Initial Parameters    !
                           ! (Angstroms and Degrees)  !
 --------------------------                            --------------------------
 ! Name  Definition              Value          Derivative Info.                !
 --------------------------------------------------------------------------------
 ! R1    R(1,2)                  1.7751         D2E/DX2 =    0.2562             !
 ! R2    R(1,3)                  1.6021         D2E/DX2 =    0.3514             !
 ! R3    R(1,4)                  1.6089         D2E/DX2 =    0.3408             !
 ! R4    R(1,16)                 1.4933         D2E/DX2 =    0.5806             !
 ! R5    R(2,7)                  1.0901         D2E/DX2 =    0.3528             !
 ! R6    R(2,8)                  1.0904         D2E/DX2 =    0.3517             !
 ! R7    R(2,9)                  1.0904         D2E/DX2 =    0.352              !
 ! R8    R(3,5)                  1.4509         D2E/DX2 =    0.3109             !
 ! R9    R(4,6)                  0.9687         D2E/DX2 =    0.5193             !
 ! R10   R(5,10)                 1.513          D2E/DX2 =    0.305              !
 ! R11   R(5,11)                 1.0913         D2E/DX2 =    0.3443             !
 ! R12   R(5,12)                 1.0882         D2E/DX2 =    0.3513             !
 ! R13   R(10,13)                1.0929         D2E/DX2 =    0.3438             !
 ! R14   R(10,14)                1.0919         D2E/DX2 =    0.3456             !
 ! R15   R(10,15)                1.0917         D2E/DX2 =    0.3459             !
 ! A1    A(2,1,3)              103.3016         D2E/DX2 =    0.0935             !
 ! A2    A(2,1,4)              102.4992         D2E/DX2 =    0.1001             !
 ! A3    A(2,1,16)             117.816          D2E/DX2 =    0.0542             !
 ! A4    A(3,1,4)              106.4086         D2E/DX2 =    0.0575             !
 ! A5    A(3,1,16)             112.7486         D2E/DX2 =    0.0517             !
 ! A6    A(4,1,16)             112.8359         D2E/DX2 =    0.0483             !
 ! A7    A(1,2,7)              108.9735         D2E/DX2 =    0.0914             !
 ! A8    A(1,2,8)              108.899          D2E/DX2 =    0.0915             !
 ! A9    A(1,2,9)              109.7265         D2E/DX2 =    0.0891             !
 ! A10   A(7,2,8)              109.7047         D2E/DX2 =    0.0444             !
 ! A11   A(7,2,9)              109.7622         D2E/DX2 =    0.0447             !
 ! A12   A(8,2,9)              109.7558         D2E/DX2 =    0.0449             !
 ! A13   A(1,3,5)              121.319          D2E/DX2 =    0.2893             !
 ! A14   A(1,4,6)              114.5724         D2E/DX2 =    0.1299             !
 ! A15   A(3,5,10)             112.0217         D2E/DX2 =    0.2193             !
 ! A16   A(3,5,11)             108.3264         D2E/DX2 =    0.0736             !
 ! A17   A(3,5,12)             104.3806         D2E/DX2 =    0.073              !
 ! A18   A(10,5,11)            111.6282         D2E/DX2 =    0.0715             !
 ! A19   A(10,5,12)            111.3156         D2E/DX2 =    0.0747             !
 ! A20   A(11,5,12)            108.858          D2E/DX2 =    0.03               !
 ! A21   A(5,10,13)            111.5868         D2E/DX2 =    0.1116             !
 ! A22   A(5,10,14)            109.012          D2E/DX2 =    0.0971             !
 ! A23   A(5,10,15)            110.7406         D2E/DX2 =    0.1015             !
 ! A24   A(13,10,14)           107.7831         D2E/DX2 =    0.0505             !
 ! A25   A(13,10,15)           109.0562         D2E/DX2 =    0.0514             !
 ! A26   A(14,10,15)           108.5695         D2E/DX2 =    0.0473             !
 ! D1    D(3,1,2,7)            -65.7879         D2E/DX2 =    0.0183             !
 ! D2    D(3,1,2,8)            174.571          D2E/DX2 =    0.0182             !
 ! D3    D(3,1,2,9)             54.4183         D2E/DX2 =    0.0189             !
 ! D4    D(4,1,2,7)           -176.2586         D2E/DX2 =    0.0179             !
 ! D5    D(4,1,2,8)             64.1003         D2E/DX2 =    0.0184             !
 ! D6    D(4,1,2,9)            -56.0524         D2E/DX2 =    0.0187             !
 ! D7    D(16,1,2,7)            59.2414         D2E/DX2 =    0.0172             !
 ! D8    D(16,1,2,8)           -60.3997         D2E/DX2 =    0.0173             !
 ! D9    D(16,1,2,9)           179.4476         D2E/DX2 =    0.0158             !
 ! D10   D(2,1,3,5)            159.1918         D2E/DX2 =    0.0281             !
 ! D11   D(4,1,3,5)            -93.2632         D2E/DX2 =    0.0515             !
 ! D12   D(16,1,3,5)            30.9431         D2E/DX2 =    0.0277             !
 ! D13   D(2,1,4,6)           -164.0584         D2E/DX2 =    0.023              !
 ! D14   D(3,1,4,6)             87.8252         D2E/DX2 =    0.0383             !
 ! D15   D(16,1,4,6)           -36.3271         D2E/DX2 =    0.0248             !
 ! D16   D(1,3,5,10)            66.8081         D2E/DX2 =    0.0232             !
 ! D17   D(1,3,5,11)           -56.7515         D2E/DX2 =    0.0213             !
 ! D18   D(1,3,5,12)          -172.6279         D2E/DX2 =    0.0239             !
 ! D19   D(3,5,10,13)          -67.0431         D2E/DX2 =    0.0198             !
 ! D20   D(3,5,10,14)          174.0275         D2E/DX2 =    0.0172             !
 ! D21   D(3,5,10,15)           54.6442         D2E/DX2 =    0.0174             !
 ! D22   D(11,5,10,13)          54.6409         D2E/DX2 =    0.0165             !
 ! D23   D(11,5,10,14)         -64.2885         D2E/DX2 =    0.0161             !
 ! D24   D(11,5,10,15)         176.3282         D2E/DX2 =    0.0166             !
 ! D25   D(12,5,10,13)         176.5078         D2E/DX2 =    0.0171             !
 ! D26   D(12,5,10,14)          57.5784         D2E/DX2 =    0.016              !
 ! D27   D(12,5,10,15)         -61.8049         D2E/DX2 =    0.0165             !
 --------------------------------------------------------------------------------
 Trust Radius=3.00D-01 FncErr=1.00D-07 GrdErr=1.00D-06
 Number of steps in this run=     78 maximum allowed number of steps=    100.
 GradGradGradGradGradGradGradGradGradGradGradGradGradGradGradGradGradGrad

 Leave Link  103 at Wed Nov 27 10:43:16 2019, MaxMem=  5898240000 cpu:         1.4
 (Enter /apps/gaussian/g09_d01/g09/l202.exe)
                          Input orientation:                          
 ---------------------------------------------------------------------
 Center     Atomic      Atomic             Coordinates (Angstroms)
 Number     Number       Type             X           Y           Z
 ---------------------------------------------------------------------
      1         15           0       -0.711281    0.063919   -0.132580
      2          6           0       -2.209082   -0.713088    0.418644
      3          8           0        0.436505   -0.852759    0.507023
      4          8           0       -0.707867    1.441934    0.697831
      5          6           0        1.783809   -0.859466   -0.031272
      6          1           0       -0.097180    2.114048    0.360491
      7          1           0       -2.284068   -1.700891   -0.036197
      8          1           0       -3.057944   -0.101515    0.111500
      9          1           0       -2.196602   -0.807353    1.504891
     10          6           0        2.482639    0.466896    0.172275
     11          1           0        1.729908   -1.127764   -1.087706
     12          1           0        2.286887   -1.658714    0.509385
     13          1           0        2.017684    1.261001   -0.417318
     14          1           0        3.521254    0.375212   -0.152088
     15          1           0        2.471392    0.752103    1.225950
     16          8           0       -0.533420    0.271520   -1.600657
 ---------------------------------------------------------------------
                    Distance matrix (angstroms):
                    1          2          3          4          5
     1  P    0.000000
     2  C    1.775105   0.000000
     3  O    1.602124   2.650745   0.000000
     4  O    1.608888   2.641158   2.571306   0.000000
     5  C    2.662401   4.020825   1.450874   3.469364   0.000000
     6  H    2.196194   3.529336   3.017985   0.968749   3.540252
     7  H    2.365904   1.090072   2.901023   3.591735   4.153992
     8  H    2.365115   1.090379   3.596106   2.872086   4.902800
     9  H    2.376258   1.090400   2.816213   2.815487   4.266871
    10  C    3.233644   4.844101   2.457684   3.377312   1.512955
    11  H    2.879545   4.237533   2.071637   3.966641   1.091303
    12  H    3.516901   4.595234   2.018287   4.314868   1.088207
    13  H    2.993549   4.739348   2.796876   2.950411   2.167974
    14  H    4.244012   5.860622   3.384969   4.443616   2.134887
    15  H    3.528259   4.970450   2.689462   3.295826   2.156510
    16  O    1.493313   2.802655   2.578191   2.585217   3.018551
                    6          7          8          9         10
     6  H    0.000000
     7  H    4.415156   0.000000
     8  H    3.706323   1.782892   0.000000
     9  H    3.775156   1.783539   1.783720   0.000000
    10  C    3.066594   5.240636   5.569995   5.029401   0.000000
    11  H    3.993103   4.188813   5.041310   4.716111   2.167279
    12  H    4.465386   4.603593   5.581254   4.670923   2.161060
    13  H    2.409424   5.236711   5.281865   5.072788   1.092889
    14  H    4.047141   6.166474   6.601711   6.069425   1.091943
    15  H    3.033394   5.497690   5.704754   4.929491   1.091650
    16  O    2.726044   3.066384   3.073086   3.684368   3.504008
                   11         12         13         14         15
    11  H    0.000000
    12  H    1.772804   0.000000
    13  H    2.497686   3.075059   0.000000
    14  H    2.518579   2.469426   1.765132   0.000000
    15  H    3.071922   2.521814   1.779089   1.772921   0.000000
    16  O    2.709938   4.016492   2.981191   4.306911   4.153259
                   16
    16  O    0.000000
 Stoichiometry    C3H9O3P
 Framework group  C1[X(C3H9O3P)]
 Deg. of freedom    42
 Full point group                 C1      NOp   1
 RotChk:  IX=0 Diff= 9.38D-16
 Largest Abelian subgroup         C1      NOp   1
 Largest concise Abelian subgroup C1      NOp   1
                         Standard orientation:                         
 ---------------------------------------------------------------------
 Center     Atomic      Atomic             Coordinates (Angstroms)
 Number     Number       Type             X           Y           Z
 ---------------------------------------------------------------------
      1         15           0        0.705760    0.057247    0.136145
      2          6           0        2.202935   -0.713367   -0.425653
      3          8           0       -0.442756   -0.851180   -0.513834
      4          8           0        0.702160    1.445353   -0.677285
      5          6           0       -1.789676   -0.864106    0.025309
      6          1           0        0.091915    2.113450   -0.331280
      7          1           0        2.277954   -1.706700    0.016974
      8          1           0        3.052198   -0.105854   -0.111637
      9          1           0        2.189648   -0.794287   -1.512966
     10          6           0       -2.488258    0.464856   -0.161439
     11          1           0       -1.735097   -1.145367    1.078331
     12          1           0       -2.293378   -1.656513   -0.524755
     13          1           0       -2.022645    1.251530    0.437522
     14          1           0       -3.526667    0.369496    0.162523
     15          1           0       -2.477681    0.762972   -1.211542
     16          8           0        0.529013    0.246863    1.606788
 ---------------------------------------------------------------------
 Rotational constants (GHZ):      3.6240705      1.6096325      1.5288136
 Leave Link  202 at Wed Nov 27 10:43:16 2019, MaxMem=  5898240000 cpu:         0.0
 (Enter /apps/gaussian/g09_d01/g09/l301.exe)
 Standard basis: 6-311++G(d,p) (5D, 7F)
 Ernie: Thresh=  0.10000D-02 Tol=  0.10000D-05 Strict=F.
 There are   232 symmetry adapted cartesian basis functions of A   symmetry.
 There are   225 symmetry adapted basis functions of A   symmetry.
   225 basis functions,   347 primitive gaussians,   232 cartesian basis functions
    33 alpha electrons       33 beta electrons
       nuclear repulsion energy       440.2781412840 Hartrees.
 IExCor= 4336 DFT=T Ex+Corr=M062X ExCW=0 ScaHFX=  0.540000
 ScaDFX=  1.000000  1.000000  1.000000  1.000000 ScalE2=  1.000000  1.000000
 IRadAn=      5 IRanWt=     -1 IRanGd=            0 ICorTp=0 IEmpDi=  4
 NAtoms=   16 NActive=   16 NUniq=   16 SFac= 1.00D+00 NAtFMM=   60 NAOKFM=F Big=F
 Integral buffers will be    131072 words long.
 Raffenetti 2 integral format.
 Two-electron integral symmetry is turned on.
 Leave Link  301 at Wed Nov 27 10:43:16 2019, MaxMem=  5898240000 cpu:         0.9
 (Enter /apps/gaussian/g09_d01/g09/l302.exe)
 NPDir=0 NMtPBC=     1 NCelOv=     1 NCel=       1 NClECP=     1 NCelD=      1
         NCelK=      1 NCelE2=     1 NClLst=     1 CellRange=     0.0.
 One-electron integrals computed using PRISM.
 NBasis=   225 RedAO= T EigKep=  6.04D-05  NBF=   225
 NBsUse=   225 1.00D-06 EigRej= -1.00D+00 NBFU=   225
 Precomputing XC quadrature grid using
 IXCGrd= 4 IRadAn=           5 IRanWt=          -1 IRanGd=           0 AccXCQ= 0.00D+00.
 Generated NRdTot=       0 NPtTot=           0 NUsed=           0 NTot=          32
 NSgBfM=   232   232   232   232   232 MxSgAt=    16 MxSgA2=    16.
 Leave Link  302 at Wed Nov 27 10:43:16 2019, MaxMem=  5898240000 cpu:         4.6
 (Enter /apps/gaussian/g09_d01/g09/l303.exe)
 DipDrv:  MaxL=1.
 Leave Link  303 at Wed Nov 27 10:43:17 2019, MaxMem=  5898240000 cpu:         0.7
 (Enter /apps/gaussian/g09_d01/g09/l401.exe)
 Initial guess from the checkpoint file:  "empa_sp.chk"
 B after Tr=     0.000000    0.000000    0.000000
         Rot=    1.000000    0.000000    0.000000    0.000000 Ang=   0.00 deg.
 Guess basis will be translated and rotated to current coordinates.
 JPrj=2 DoOrth=T DoCkMO=T.
 Leave Link  401 at Wed Nov 27 10:43:17 2019, MaxMem=  5898240000 cpu:         3.2
 (Enter /apps/gaussian/g09_d01/g09/l502.exe)
 Closed shell SCF:
 Using DIIS extrapolation, IDIIS=  1040.
 Integral symmetry usage will be decided dynamically.
 Keep R1 ints in memory in canonical form, NReq=329737126.
 IVT=      184549 IEndB=      184549 NGot=  5898240000 MDV=  5574827427
 LenX=  5574827427 LenY=  5574773162
 Requested convergence on RMS density matrix=1.00D-09 within 128 cycles.
 Requested convergence on MAX density matrix=1.00D-07.
 Requested convergence on             energy=1.00D-07.
 No special actions if energy rises.
 FoFCou: FMM=F IPFlag=           0 FMFlag=           0 FMFlg1=           0
         NFxFlg=           0 DoJE=F BraDBF=F KetDBF=F FulRan=T
         wScrn=  0.000000 ICntrl=     600 IOpCl=  0 I1Cent=           0 NGrid=           0
         NMat0=    1 NMatS0=  25425 NMatT0=    0 NMatD0=    1 NMtDS0=    0 NMtDT0=    0
 Symmetry not used in FoFCou.

 Cycle   1  Pass 1  IDiag  1:
 E= -686.786392055814    
 DIIS: error= 2.09D-03 at cycle   1 NSaved=   1.
 NSaved= 1 IEnMin= 1 EnMin= -686.786392055814     IErMin= 1 ErrMin= 2.09D-03
 ErrMax= 2.09D-03  0.00D+00 EMaxC= 1.00D-01 BMatC= 2.42D-03 BMatP= 2.42D-03
 IDIUse=3 WtCom= 9.79D-01 WtEn= 2.09D-02
 Coeff-Com:  0.100D+01
 Coeff-En:   0.100D+01
 Coeff:      0.100D+01
 Gap=     0.352 Goal=   None    Shift=    0.000
 GapD=    0.352 DampG=1.000 DampE=1.000 DampFc=1.0000 IDamp=-1.
 RMSDP=2.55D-03 MaxDP=9.56D-02              OVMax= 3.42D-02

 Cycle   2  Pass 1  IDiag  1:
 E= -686.790292367390     Delta-E=       -0.003900311576 Rises=F Damp=F
 DIIS: error= 2.82D-03 at cycle   2 NSaved=   2.
 NSaved= 2 IEnMin= 2 EnMin= -686.790292367390     IErMin= 1 ErrMin= 2.09D-03
 ErrMax= 2.82D-03  0.00D+00 EMaxC= 1.00D-01 BMatC= 1.60D-03 BMatP= 2.42D-03
 IDIUse=3 WtCom= 9.72D-01 WtEn= 2.82D-02
 Coeff-Com:  0.424D+00 0.576D+00
 Coeff-En:   0.000D+00 0.100D+01
 Coeff:      0.412D+00 0.588D+00
 Gap=     0.351 Goal=   None    Shift=    0.000
 RMSDP=4.53D-04 MaxDP=1.65D-02 DE=-3.90D-03 OVMax= 1.31D-02

 Cycle   3  Pass 1  IDiag  1:
 E= -686.791251429370     Delta-E=       -0.000959061981 Rises=F Damp=F
 DIIS: error= 1.14D-03 at cycle   3 NSaved=   3.
 NSaved= 3 IEnMin= 3 EnMin= -686.791251429370     IErMin= 3 ErrMin= 1.14D-03
 ErrMax= 1.14D-03  0.00D+00 EMaxC= 1.00D-01 BMatC= 3.89D-04 BMatP= 1.60D-03
 IDIUse=3 WtCom= 9.89D-01 WtEn= 1.14D-02
 Coeff-Com:  0.496D-01 0.314D+00 0.636D+00
 Coeff-En:   0.000D+00 0.150D+00 0.850D+00
 Coeff:      0.491D-01 0.313D+00 0.638D+00
 Gap=     0.349 Goal=   None    Shift=    0.000
 RMSDP=1.58D-04 MaxDP=5.92D-03 DE=-9.59D-04 OVMax= 5.24D-03

 Cycle   4  Pass 1  IDiag  1:
 E= -686.791509263635     Delta-E=       -0.000257834264 Rises=F Damp=F
 DIIS: error= 2.09D-04 at cycle   4 NSaved=   4.
 NSaved= 4 IEnMin= 4 EnMin= -686.791509263635     IErMin= 4 ErrMin= 2.09D-04
 ErrMax= 2.09D-04  0.00D+00 EMaxC= 1.00D-01 BMatC= 1.37D-05 BMatP= 3.89D-04
 IDIUse=3 WtCom= 9.98D-01 WtEn= 2.09D-03
 Coeff-Com: -0.120D-01 0.466D-01 0.180D+00 0.786D+00
 Coeff-En:   0.000D+00 0.000D+00 0.000D+00 0.100D+01
 Coeff:     -0.120D-01 0.465D-01 0.179D+00 0.786D+00
 Gap=     0.349 Goal=   None    Shift=    0.000
 RMSDP=3.71D-05 MaxDP=9.39D-04 DE=-2.58D-04 OVMax= 7.13D-04

 Cycle   5  Pass 1  IDiag  1:
 E= -686.791518293234     Delta-E=       -0.000009029600 Rises=F Damp=F
 DIIS: error= 1.02D-04 at cycle   5 NSaved=   5.
 NSaved= 5 IEnMin= 5 EnMin= -686.791518293234     IErMin= 5 ErrMin= 1.02D-04
 ErrMax= 1.02D-04  0.00D+00 EMaxC= 1.00D-01 BMatC= 3.86D-06 BMatP= 1.37D-05
 IDIUse=3 WtCom= 9.99D-01 WtEn= 1.02D-03
 Coeff-Com: -0.996D-02-0.441D-02 0.176D-01 0.374D+00 0.623D+00
 Coeff-En:   0.000D+00 0.000D+00 0.000D+00 0.529D-01 0.947D+00
 Coeff:     -0.995D-02-0.440D-02 0.176D-01 0.374D+00 0.623D+00
 Gap=     0.349 Goal=   None    Shift=    0.000
 RMSDP=1.12D-05 MaxDP=2.89D-04 DE=-9.03D-06 OVMax= 3.45D-04

 Cycle   6  Pass 1  IDiag  1:
 E= -686.791520974189     Delta-E=       -0.000002680955 Rises=F Damp=F
 DIIS: error= 2.14D-05 at cycle   6 NSaved=   6.
 NSaved= 6 IEnMin= 6 EnMin= -686.791520974189     IErMin= 6 ErrMin= 2.14D-05
 ErrMax= 2.14D-05  0.00D+00 EMaxC= 1.00D-01 BMatC= 1.70D-07 BMatP= 3.86D-06
 IDIUse=1 WtCom= 1.00D+00 WtEn= 0.00D+00
 Coeff-Com: -0.157D-02-0.282D-02-0.117D-01 0.274D-01 0.185D+00 0.804D+00
 Coeff:     -0.157D-02-0.282D-02-0.117D-01 0.274D-01 0.185D+00 0.804D+00
 Gap=     0.349 Goal=   None    Shift=    0.000
 RMSDP=3.23D-06 MaxDP=6.79D-05 DE=-2.68D-06 OVMax= 9.13D-05

 Cycle   7  Pass 1  IDiag  1:
 E= -686.791521103758     Delta-E=       -0.000000129569 Rises=F Damp=F
 DIIS: error= 5.49D-06 at cycle   7 NSaved=   7.
 NSaved= 7 IEnMin= 7 EnMin= -686.791521103758     IErMin= 7 ErrMin= 5.49D-06
 ErrMax= 5.49D-06  0.00D+00 EMaxC= 1.00D-01 BMatC= 1.74D-08 BMatP= 1.70D-07
 IDIUse=1 WtCom= 1.00D+00 WtEn= 0.00D+00
 Coeff-Com:  0.148D-04-0.648D-03-0.450D-02-0.136D-01 0.301D-01 0.310D+00
 Coeff-Com:  0.679D+00
 Coeff:      0.148D-04-0.648D-03-0.450D-02-0.136D-01 0.301D-01 0.310D+00
 Coeff:      0.679D+00
 Gap=     0.349 Goal=   None    Shift=    0.000
 RMSDP=8.93D-07 MaxDP=2.38D-05 DE=-1.30D-07 OVMax= 2.39D-05

 Cycle   8  Pass 1  IDiag  1:
 E= -686.791521118005     Delta-E=       -0.000000014247 Rises=F Damp=F
 DIIS: error= 2.21D-06 at cycle   8 NSaved=   8.
 NSaved= 8 IEnMin= 8 EnMin= -686.791521118005     IErMin= 8 ErrMin= 2.21D-06
 ErrMax= 2.21D-06  0.00D+00 EMaxC= 1.00D-01 BMatC= 1.88D-09 BMatP= 1.74D-08
 IDIUse=1 WtCom= 1.00D+00 WtEn= 0.00D+00
 Coeff-Com:  0.126D-03-0.135D-03-0.419D-03-0.827D-02-0.773D-02 0.388D-01
 Coeff-Com:  0.264D+00 0.714D+00
 Coeff:      0.126D-03-0.135D-03-0.419D-03-0.827D-02-0.773D-02 0.388D-01
 Coeff:      0.264D+00 0.714D+00
 Gap=     0.349 Goal=   None    Shift=    0.000
 RMSDP=4.19D-07 MaxDP=1.40D-05 DE=-1.42D-08 OVMax= 8.46D-06

 Cycle   9  Pass 1  IDiag  1:
 E= -686.791521119347     Delta-E=       -0.000000001342 Rises=F Damp=F
 DIIS: error= 6.83D-07 at cycle   9 NSaved=   9.
 NSaved= 9 IEnMin= 9 EnMin= -686.791521119347     IErMin= 9 ErrMin= 6.83D-07
 ErrMax= 6.83D-07  0.00D+00 EMaxC= 1.00D-01 BMatC= 2.43D-10 BMatP= 1.88D-09
 IDIUse=1 WtCom= 1.00D+00 WtEn= 0.00D+00
 Coeff-Com:  0.480D-04 0.913D-05 0.424D-03-0.223D-02-0.774D-02-0.205D-01
 Coeff-Com:  0.391D-01 0.322D+00 0.669D+00
 Coeff:      0.480D-04 0.913D-05 0.424D-03-0.223D-02-0.774D-02-0.205D-01
 Coeff:      0.391D-01 0.322D+00 0.669D+00
 Gap=     0.349 Goal=   None    Shift=    0.000
 RMSDP=1.15D-07 MaxDP=1.88D-06 DE=-1.34D-09 OVMax= 3.65D-06

 Cycle  10  Pass 1  IDiag  1:
 E= -686.791521119547     Delta-E=       -0.000000000201 Rises=F Damp=F
 DIIS: error= 1.10D-07 at cycle  10 NSaved=  10.
 NSaved=10 IEnMin=10 EnMin= -686.791521119547     IErMin=10 ErrMin= 1.10D-07
 ErrMax= 1.10D-07  0.00D+00 EMaxC= 1.00D-01 BMatC= 7.05D-12 BMatP= 2.43D-10
 IDIUse=1 WtCom= 1.00D+00 WtEn= 0.00D+00
 Coeff-Com:  0.401D-05 0.109D-04 0.102D-03 0.308D-04-0.137D-02-0.718D-02
 Coeff-Com: -0.785D-02 0.279D-01 0.166D+00 0.822D+00
 Coeff:      0.401D-05 0.109D-04 0.102D-03 0.308D-04-0.137D-02-0.718D-02
 Coeff:     -0.785D-02 0.279D-01 0.166D+00 0.822D+00
 Gap=     0.349 Goal=   None    Shift=    0.000
 RMSDP=3.00D-08 MaxDP=9.01D-07 DE=-2.01D-10 OVMax= 9.34D-07

 Cycle  11  Pass 1  IDiag  1:
 E= -686.791521119571     Delta-E=       -0.000000000023 Rises=F Damp=F
 DIIS: error= 3.80D-08 at cycle  11 NSaved=  11.
 NSaved=11 IEnMin=11 EnMin= -686.791521119571     IErMin=11 ErrMin= 3.80D-08
 ErrMax= 3.80D-08  0.00D+00 EMaxC= 1.00D-01 BMatC= 7.11D-13 BMatP= 7.05D-12
 IDIUse=1 WtCom= 1.00D+00 WtEn= 0.00D+00
 Coeff-Com: -0.220D-05 0.399D-05-0.183D-04 0.205D-03 0.297D-03-0.553D-04
 Coeff-Com: -0.562D-02-0.199D-01-0.979D-02 0.226D+00 0.809D+00
 Coeff:     -0.220D-05 0.399D-05-0.183D-04 0.205D-03 0.297D-03-0.553D-04
 Coeff:     -0.562D-02-0.199D-01-0.979D-02 0.226D+00 0.809D+00
 Gap=     0.349 Goal=   None    Shift=    0.000
 RMSDP=1.01D-08 MaxDP=3.30D-07 DE=-2.34D-11 OVMax= 4.39D-07

 Cycle  12  Pass 1  IDiag  1:
 E= -686.791521119556     Delta-E=        0.000000000015 Rises=F Damp=F
 DIIS: error= 1.04D-08 at cycle  12 NSaved=  12.
 NSaved=12 IEnMin=11 EnMin= -686.791521119571     IErMin=12 ErrMin= 1.04D-08
 ErrMax= 1.04D-08  0.00D+00 EMaxC= 1.00D-01 BMatC= 5.39D-14 BMatP= 7.11D-13
 IDIUse=1 WtCom= 1.00D+00 WtEn= 0.00D+00
 Coeff-Com: -0.122D-05 0.482D-06-0.127D-04 0.588D-04 0.209D-03 0.650D-03
 Coeff-Com: -0.880D-03-0.788D-02-0.193D-01-0.222D-01 0.204D+00 0.845D+00
 Coeff:     -0.122D-05 0.482D-06-0.127D-04 0.588D-04 0.209D-03 0.650D-03
 Coeff:     -0.880D-03-0.788D-02-0.193D-01-0.222D-01 0.204D+00 0.845D+00
 Gap=     0.349 Goal=   None    Shift=    0.000
 RMSDP=3.82D-09 MaxDP=1.01D-07 DE= 1.46D-11 OVMax= 1.19D-07

 Cycle  13  Pass 1  IDiag  1:
 E= -686.791521119567     Delta-E=       -0.000000000011 Rises=F Damp=F
 DIIS: error= 2.59D-09 at cycle  13 NSaved=  13.
 NSaved=13 IEnMin=11 EnMin= -686.791521119571     IErMin=13 ErrMin= 2.59D-09
 ErrMax= 2.59D-09  0.00D+00 EMaxC= 1.00D-01 BMatC= 2.32D-15 BMatP= 5.39D-14
 IDIUse=1 WtCom= 1.00D+00 WtEn= 0.00D+00
 Coeff-Com: -0.726D-08-0.219D-06-0.318D-06-0.632D-05 0.113D-04 0.105D-03
 Coeff-Com:  0.305D-03 0.301D-03-0.251D-02-0.204D-01-0.210D-01 0.139D+00
 Coeff-Com:  0.905D+00
 Coeff:     -0.726D-08-0.219D-06-0.318D-06-0.632D-05 0.113D-04 0.105D-03
 Coeff:      0.305D-03 0.301D-03-0.251D-02-0.204D-01-0.210D-01 0.139D+00
 Coeff:      0.905D+00
 Gap=     0.349 Goal=   None    Shift=    0.000
 RMSDP=1.05D-09 MaxDP=3.56D-08 DE=-1.07D-11 OVMax= 3.31D-08

 Cycle  14  Pass 1  IDiag  1:
 E= -686.791521119563     Delta-E=        0.000000000004 Rises=F Damp=F
 DIIS: error= 7.81D-10 at cycle  14 NSaved=  14.
 NSaved=14 IEnMin=11 EnMin= -686.791521119571     IErMin=14 ErrMin= 7.81D-10
 ErrMax= 7.81D-10  0.00D+00 EMaxC= 1.00D-01 BMatC= 2.17D-16 BMatP= 2.32D-15
 IDIUse=1 WtCom= 1.00D+00 WtEn= 0.00D+00
 Coeff-Com:  0.519D-07-0.929D-07 0.410D-06-0.470D-05-0.640D-05 0.255D-05
 Coeff-Com:  0.134D-03 0.429D-03 0.154D-03-0.489D-02-0.146D-01 0.204D-02
 Coeff-Com:  0.257D+00 0.760D+00
 Coeff:      0.519D-07-0.929D-07 0.410D-06-0.470D-05-0.640D-05 0.255D-05
 Coeff:      0.134D-03 0.429D-03 0.154D-03-0.489D-02-0.146D-01 0.204D-02
 Coeff:      0.257D+00 0.760D+00
 Gap=     0.349 Goal=   None    Shift=    0.000
 RMSDP=1.50D-10 MaxDP=3.66D-09 DE= 4.32D-12 OVMax= 4.52D-09

 SCF Done:  E(RM062X) =  -686.791521120     A.U. after   14 cycles
            NFock= 14  Conv=0.15D-09     -V/T= 2.0024
 KE= 6.851293720812D+02 PE=-2.503060203320D+03 EE= 6.908611688355D+02
 Leave Link  502 at Wed Nov 27 10:44:18 2019, MaxMem=  5898240000 cpu:       619.4
 (Enter /apps/gaussian/g09_d01/g09/l601.exe)
 Copying SCF densities to generalized density rwf, IOpCl= 0 IROHF=0.

 **********************************************************************

            Population analysis using the SCF density.

 **********************************************************************

 Orbital symmetries:
       Occupied  (A) (A) (A) (A) (A) (A) (A) (A) (A) (A) (A) (A)
                 (A) (A) (A) (A) (A) (A) (A) (A) (A) (A) (A) (A)
                 (A) (A) (A) (A) (A) (A) (A) (A) (A)
       Virtual   (A) (A) (A) (A) (A) (A) (A) (A) (A) (A) (A) (A)
                 (A) (A) (A) (A) (A) (A) (A) (A) (A) (A) (A) (A)
                 (A) (A) (A) (A) (A) (A) (A) (A) (A) (A) (A) (A)
                 (A) (A) (A) (A) (A) (A) (A) (A) (A) (A) (A) (A)
                 (A) (A) (A) (A) (A) (A) (A) (A) (A) (A) (A) (A)
                 (A) (A) (A) (A) (A) (A) (A) (A) (A) (A) (A) (A)
                 (A) (A) (A) (A) (A) (A) (A) (A) (A) (A) (A) (A)
                 (A) (A) (A) (A) (A) (A) (A) (A) (A) (A) (A) (A)
                 (A) (A) (A) (A) (A) (A) (A) (A) (A) (A) (A) (A)
                 (A) (A) (A) (A) (A) (A) (A) (A) (A) (A) (A) (A)
                 (A) (A) (A) (A) (A) (A) (A) (A) (A) (A) (A) (A)
                 (A) (A) (A) (A) (A) (A) (A) (A) (A) (A) (A) (A)
                 (A) (A) (A) (A) (A) (A) (A) (A) (A) (A) (A) (A)
                 (A) (A) (A) (A) (A) (A) (A) (A) (A) (A) (A) (A)
                 (A) (A) (A) (A) (A) (A) (A) (A) (A) (A) (A) (A)
                 (A) (A) (A) (A) (A) (A) (A) (A) (A) (A) (A) (A)
 The electronic state is 1-A.
 Alpha  occ. eigenvalues --  -78.14306 -19.65826 -19.65072 -19.57311 -10.60613
 Alpha  occ. eigenvalues --  -10.55258 -10.54401  -6.95526  -5.07382  -5.07296
 Alpha  occ. eigenvalues --   -5.07133  -1.20704  -1.16051  -1.07331  -0.88013
 Alpha  occ. eigenvalues --   -0.84038  -0.74578  -0.68425  -0.61333  -0.57168
 Alpha  occ. eigenvalues --   -0.54290  -0.54024  -0.50763  -0.49927  -0.49037
 Alpha  occ. eigenvalues --   -0.48013  -0.46629  -0.44705  -0.43279  -0.40515
 Alpha  occ. eigenvalues --   -0.38895  -0.35827  -0.35629
 Alpha virt. eigenvalues --   -0.00728   0.00659   0.00785   0.02327   0.03062
 Alpha virt. eigenvalues --    0.03849   0.04142   0.04989   0.05775   0.06933
 Alpha virt. eigenvalues --    0.07423   0.08685   0.09370   0.09905   0.10442
 Alpha virt. eigenvalues --    0.10807   0.12057   0.12657   0.12768   0.13263
 Alpha virt. eigenvalues --    0.13722   0.14720   0.14908   0.15194   0.15625
 Alpha virt. eigenvalues --    0.16279   0.17408   0.18246   0.19027   0.20209
 Alpha virt. eigenvalues --    0.20389   0.21212   0.21786   0.22823   0.24640
 Alpha virt. eigenvalues --    0.25252   0.27001   0.28525   0.29373   0.30033
 Alpha virt. eigenvalues --    0.31035   0.32448   0.32878   0.33570   0.34053
 Alpha virt. eigenvalues --    0.34380   0.35262   0.36223   0.38084   0.38529
 Alpha virt. eigenvalues --    0.39399   0.40563   0.41760   0.44726   0.45943
 Alpha virt. eigenvalues --    0.46837   0.48211   0.49390   0.52711   0.54741
 Alpha virt. eigenvalues --    0.57068   0.60318   0.61530   0.63407   0.68443
 Alpha virt. eigenvalues --    0.69197   0.69764   0.70437   0.71359   0.71937
 Alpha virt. eigenvalues --    0.72821   0.75349   0.75867   0.78685   0.79700
 Alpha virt. eigenvalues --    0.86998   0.90569   0.95184   0.97228   1.00743
 Alpha virt. eigenvalues --    1.03090   1.05196   1.07852   1.09339   1.12386
 Alpha virt. eigenvalues --    1.15244   1.17809   1.21270   1.22777   1.22908
 Alpha virt. eigenvalues --    1.25199   1.26514   1.28926   1.33252   1.33946
 Alpha virt. eigenvalues --    1.37851   1.45334   1.47955   1.48470   1.50340
 Alpha virt. eigenvalues --    1.55942   1.57914   1.59635   1.60513   1.61643
 Alpha virt. eigenvalues --    1.63074   1.64087   1.64698   1.68643   1.69169
 Alpha virt. eigenvalues --    1.72173   1.73045   1.75900   1.76109   1.79667
 Alpha virt. eigenvalues --    1.81087   1.84799   1.86566   1.88743   1.91287
 Alpha virt. eigenvalues --    1.94292   2.00391   2.06344   2.08083   2.11331
 Alpha virt. eigenvalues --    2.13971   2.20331   2.21108   2.21161   2.30952
 Alpha virt. eigenvalues --    2.34360   2.49184   2.50497   2.52093   2.53414
 Alpha virt. eigenvalues --    2.54571   2.56509   2.56989   2.59343   2.61334
 Alpha virt. eigenvalues --    2.61878   2.62928   2.64944   2.68076   2.73474
 Alpha virt. eigenvalues --    2.81552   2.87466   2.89613   2.92298   2.94428
 Alpha virt. eigenvalues --    2.95096   2.99195   3.03130   3.04698   3.08561
 Alpha virt. eigenvalues --    3.13137   3.16217   3.17499   3.21724   3.29990
 Alpha virt. eigenvalues --    3.32550   3.42379   3.48773   3.67288   3.78122
 Alpha virt. eigenvalues --    3.78569   3.83474   3.84918   3.87965   3.89123
 Alpha virt. eigenvalues --    4.04414   4.26540   5.09767   5.13312   5.18142
 Alpha virt. eigenvalues --    5.19854   5.25949   5.29090   5.38589   5.58240
 Alpha virt. eigenvalues --    5.59785   7.40715  14.13551  14.17504  14.26682
 Alpha virt. eigenvalues --   23.92444  24.00993  24.04717  49.99488  50.02371
 Alpha virt. eigenvalues --   50.06264 163.66694
          Condensed to atoms (all electrons):
               1          2          3          4          5          6
     1  P   14.593374  -0.216883   0.090587   0.161735   0.019188  -0.024958
     2  C   -0.216883   6.266854  -0.265183  -0.255991   0.202595   0.008540
     3  O    0.090587  -0.265183   8.493667   0.063802  -0.141697  -0.004977
     4  O    0.161735  -0.255991   0.063802   8.110279  -0.075064   0.239911
     5  C    0.019188   0.202595  -0.141697  -0.075064   5.932284   0.002826
     6  H   -0.024958   0.008540  -0.004977   0.239911   0.002826   0.494611
     7  H   -0.122911   0.442828  -0.006384   0.003363   0.012479  -0.002359
     8  H   -0.132208   0.431589   0.011977   0.001670   0.002555   0.003681
     9  H   -0.062377   0.407712  -0.014011  -0.016863   0.007809   0.005166
    10  C   -0.061761  -0.053773   0.020225   0.042806  -0.318037   0.028237
    11  H   -0.043818  -0.022041  -0.022302   0.010211   0.415646   0.003014
    12  H    0.009039   0.007389  -0.083078  -0.003213   0.436286  -0.000783
    13  H    0.006292  -0.012775   0.011845  -0.008183  -0.035099  -0.013575
    14  H    0.008420   0.006450   0.006032  -0.000871  -0.054969   0.002697
    15  H   -0.027101  -0.010613   0.015058   0.003956  -0.054813  -0.000303
    16  O    0.359457  -0.194311  -0.007630   0.008501   0.058337  -0.056711
               7          8          9         10         11         12
     1  P   -0.122911  -0.132208  -0.062377  -0.061761  -0.043818   0.009039
     2  C    0.442828   0.431589   0.407712  -0.053773  -0.022041   0.007389
     3  O   -0.006384   0.011977  -0.014011   0.020225  -0.022302  -0.083078
     4  O    0.003363   0.001670  -0.016863   0.042806   0.010211  -0.003213
     5  C    0.012479   0.002555   0.007809  -0.318037   0.415646   0.436286
     6  H   -0.002359   0.003681   0.005166   0.028237   0.003014  -0.000783
     7  H    0.527640  -0.015992  -0.033937  -0.007462  -0.002263  -0.000655
     8  H   -0.015992   0.537816  -0.034113   0.000902   0.000002   0.000363
     9  H   -0.033937  -0.034113   0.508836   0.001597  -0.000037  -0.001257
    10  C   -0.007462   0.000902   0.001597   5.766858  -0.043182  -0.063704
    11  H   -0.002263   0.000002  -0.000037  -0.043182   0.510098  -0.032697
    12  H   -0.000655   0.000363  -0.001257  -0.063704  -0.032697   0.551442
    13  H   -0.000634  -0.001602  -0.001523   0.375897  -0.004145   0.007485
    14  H   -0.000209   0.000479   0.000264   0.422097  -0.007145   0.001775
    15  H    0.000458  -0.000417   0.000172   0.417924   0.007715  -0.011548
    16  O   -0.014706  -0.023815  -0.001752  -0.093657   0.014267   0.002625
              13         14         15         16
     1  P    0.006292   0.008420  -0.027101   0.359457
     2  C   -0.012775   0.006450  -0.010613  -0.194311
     3  O    0.011845   0.006032   0.015058  -0.007630
     4  O   -0.008183  -0.000871   0.003956   0.008501
     5  C   -0.035099  -0.054969  -0.054813   0.058337
     6  H   -0.013575   0.002697  -0.000303  -0.056711
     7  H   -0.000634  -0.000209   0.000458  -0.014706
     8  H   -0.001602   0.000479  -0.000417  -0.023815
     9  H   -0.001523   0.000264   0.000172  -0.001752
    10  C    0.375897   0.422097   0.417924  -0.093657
    11  H   -0.004145  -0.007145   0.007715   0.014267
    12  H    0.007485   0.001775  -0.011548   0.002625
    13  H    0.590528  -0.034262  -0.053631  -0.010092
    14  H   -0.034262   0.530028  -0.035499  -0.003834
    15  H   -0.053631  -0.035499   0.544138   0.004704
    16  O   -0.010092  -0.003834   0.004704   8.287071
 Mulliken charges:
               1
     1  P    0.443925
     2  C   -0.742389
     3  O   -0.167930
     4  O   -0.286049
     5  C   -0.410328
     6  H    0.314984
     7  H    0.220745
     8  H    0.217115
     9  H    0.234316
    10  C   -0.434967
    11  H    0.216678
    12  H    0.180532
    13  H    0.183474
    14  H    0.158548
    15  H    0.199801
    16  O   -0.328454
 Sum of Mulliken charges =   0.00000
 Mulliken charges with hydrogens summed into heavy atoms:
               1
     1  P    0.443925
     2  C   -0.070213
     3  O   -0.167930
     4  O    0.028935
     5  C   -0.013118
    10  C    0.106855
    16  O   -0.328454
 Electronic spatial extent (au):  <R**2>=            932.9697
 Charge=              0.0000 electrons
 Dipole moment (field-independent basis, Debye):
    X=             -1.2135    Y=             -0.2050    Z=             -2.1757  Tot=              2.4997
 Quadrupole moment (field-independent basis, Debye-Ang):
   XX=            -41.3130   YY=            -46.4869   ZZ=            -59.0423
   XY=             -2.4818   XZ=             -2.0211   YZ=             -0.6836
 Traceless Quadrupole moment (field-independent basis, Debye-Ang):
   XX=              7.6344   YY=              2.4605   ZZ=            -10.0949
   XY=             -2.4818   XZ=             -2.0211   YZ=             -0.6836
 Octapole moment (field-independent basis, Debye-Ang**2):
  XXX=              2.4236  YYY=             11.2827  ZZZ=            -14.1381  XYY=             -2.6202
  XXY=             -6.8696  XXZ=             -0.8801  XZZ=             -3.3967  YZZ=             -3.4208
  YYZ=              2.4261  XYZ=              1.7653
 Hexadecapole moment (field-independent basis, Debye-Ang**3):
 XXXX=           -718.9829 YYYY=           -218.1930 ZZZZ=           -223.2762 XXXY=             11.5675
 XXXZ=             -0.3845 YYYX=             -1.6080 YYYZ=             -2.4659 ZZZX=             -9.1667
 ZZZY=             -3.1557 XXYY=           -168.6002 XXZZ=           -163.7432 YYZZ=            -79.3776
 XXYZ=              2.2252 YYXZ=              4.9014 ZZXY=             -1.7930
 N-N= 4.402781412840D+02 E-N=-2.503060203390D+03  KE= 6.851293720812D+02
 No NMR shielding tensors so no spin-rotation constants.
 Leave Link  601 at Wed Nov 27 10:44:20 2019, MaxMem=  5898240000 cpu:         2.4
 (Enter /apps/gaussian/g09_d01/g09/l701.exe)
 Compute integral first derivatives.
 ... and contract with generalized density number  0.
 Leave Link  701 at Wed Nov 27 10:44:20 2019, MaxMem=  5898240000 cpu:         2.9
 (Enter /apps/gaussian/g09_d01/g09/l702.exe)
 L702 exits ... SP integral derivatives will be done elsewhere.
 Leave Link  702 at Wed Nov 27 10:44:20 2019, MaxMem=  5898240000 cpu:         0.6
 (Enter /apps/gaussian/g09_d01/g09/l703.exe)
 Compute integral first derivatives, UseDBF=F ICtDFT=           0.
 Integral derivatives from FoFJK, PRISM(SPDF).
 Calling FoFJK, ICntrl=      2127 FMM=F ISym2X=0 I1Cent= 0 IOpClX= 0 NMat=1 NMatS=1 NMatT=0.
 FoFJK:  IHMeth= 1 ICntrl=    2127 DoSepK=F KAlg= 0 I1Cent=   0 FoldK=F
 IRaf=         0 NMat=   1 IRICut=       1 DoRegI=T DoRafI=F ISym2E= 0.
 FoFCou: FMM=F IPFlag=           0 FMFlag=      100000 FMFlg1=         800
         NFxFlg=           0 DoJE=F BraDBF=F KetDBF=F FulRan=T
         wScrn=  0.000000 ICntrl=    2127 IOpCl=  0 I1Cent=           0 NGrid=           0
         NMat0=    1 NMatS0=      1 NMatT0=    0 NMatD0=    1 NMtDS0=    0 NMtDT0=    0
 Symmetry not used in FoFCou.
 Leave Link  703 at Wed Nov 27 10:44:27 2019, MaxMem=  5898240000 cpu:        82.2
 (Enter /apps/gaussian/g09_d01/g09/l716.exe)
 Dipole        =-4.77445026D-01-8.06610891D-02-8.55974817D-01
 ***** Axes restored to original set *****
 -------------------------------------------------------------------
 Center     Atomic                   Forces (Hartrees/Bohr)
 Number     Number              X              Y              Z
 -------------------------------------------------------------------
      1       15           0.009197376    0.002981988   -0.030733850
      2        6          -0.003444250   -0.001549996    0.005018086
      3        8           0.005224445   -0.001397612    0.002881539
      4        8           0.002499829    0.006150471    0.005097954
      5        6          -0.009144900   -0.001295830    0.000769063
      6        1          -0.004962935   -0.005075160    0.000061878
      7        1           0.000667117    0.000876248   -0.000026597
      8        1           0.000866925   -0.000152122   -0.000025629
      9        1          -0.000752253   -0.000326835   -0.000250776
     10        6           0.001302669    0.000965548    0.001025410
     11        1          -0.000479434    0.001257766   -0.000627973
     12        1           0.000108528    0.000045466    0.000789746
     13        1           0.000341933   -0.001186690   -0.001294227
     14        1           0.000136803    0.001113266    0.000022415
     15        1          -0.000018753   -0.000397235    0.000097912
     16        8          -0.001543101   -0.002009274    0.017195048
 -------------------------------------------------------------------
 Cartesian Forces:  Max     0.030733850 RMS     0.005840543
 Leave Link  716 at Wed Nov 27 10:44:27 2019, MaxMem=  5898240000 cpu:         0.5
 (Enter /apps/gaussian/g09_d01/g09/l103.exe)

 GradGradGradGradGradGradGradGradGradGradGradGradGradGradGradGradGradGrad
 Berny optimization.
 FormGI is forming the generalized inverse of G from B-inverse, IUseBI=4.
 Internal  Forces:  Max     0.017368074 RMS     0.002837095
 Search for a local minimum.
 Step number   1 out of a maximum of   78
 All quantities printed in internal units (Hartrees-Bohrs-Radians)
 RMS Force = .28371D-02 SwitMx=.10000D-02 MixMth= 1
 Mixed Optimization -- RFO/linear search
 Second derivative matrix not updated -- first step.
 ITU=  0
     Eigenvalues ---    0.00080   0.00125   0.00297   0.00633   0.02071
     Eigenvalues ---    0.03652   0.03673   0.04349   0.04415   0.04688
     Eigenvalues ---    0.06273   0.06802   0.07904   0.09841   0.10363
     Eigenvalues ---    0.11706   0.11917   0.12141   0.12296   0.12699
     Eigenvalues ---    0.13006   0.14260   0.16613   0.17035   0.19772
     Eigenvalues ---    0.20263   0.26675   0.28818   0.30353   0.33488
     Eigenvalues ---    0.34287   0.34490   0.34607   0.35061   0.35144
     Eigenvalues ---    0.35198   0.35413   0.35532   0.36511   0.51606
     Eigenvalues ---    0.53026   0.58876
 RFO step:  Lambda=-2.63426932D-03 EMin= 8.00294426D-04
 Linear search not attempted -- first point.
 Iteration  1 RMS(Cart)=  0.03469302 RMS(Int)=  0.00344238
 Iteration  2 RMS(Cart)=  0.00456384 RMS(Int)=  0.00012175
 Iteration  3 RMS(Cart)=  0.00003656 RMS(Int)=  0.00011644
 Iteration  4 RMS(Cart)=  0.00000000 RMS(Int)=  0.00011644
 ITry= 1 IFail=0 DXMaxC= 1.88D-01 DCOld= 1.00D+10 DXMaxT= 3.00D-01 DXLimC= 3.00D+00 Rises=F
 Variable       Old X    -DE/DX   Delta X   Delta X   Delta X     New X
                                 (Linear)    (Quad)   (Total)
    R1        3.35446   0.00422   0.00000   0.02086   0.02086   3.37532
    R2        3.02758   0.00016   0.00000   0.00976   0.00976   3.03734
    R3        3.04036   0.00358   0.00000   0.01988   0.01988   3.06023
    R4        2.82195  -0.01737   0.00000  -0.03654  -0.03654   2.78541
    R5        2.05994  -0.00083   0.00000  -0.00186  -0.00186   2.05808
    R6        2.06052  -0.00075   0.00000  -0.00204  -0.00204   2.05847
    R7        2.06056  -0.00023   0.00000  -0.00153  -0.00153   2.05903
    R8        2.74175  -0.00749   0.00000  -0.02702  -0.02702   2.71473
    R9        1.83067  -0.00667   0.00000  -0.01173  -0.01173   1.81894
   R10        2.85907   0.00122   0.00000   0.00941   0.00941   2.86848
   R11        2.06226   0.00032   0.00000   0.00148   0.00148   2.06374
   R12        2.05641   0.00041   0.00000   0.00165   0.00165   2.05806
   R13        2.06526  -0.00031   0.00000  -0.00024  -0.00024   2.06503
   R14        2.06347   0.00003   0.00000  -0.00043  -0.00043   2.06304
   R15        2.06292  -0.00001   0.00000  -0.00017  -0.00017   2.06275
    A1        1.80295  -0.00299   0.00000  -0.02521  -0.02553   1.77742
    A2        1.78895  -0.00385   0.00000  -0.01747  -0.01785   1.77109
    A3        2.05628   0.00246   0.00000   0.02917   0.02923   2.08551
    A4        1.85718   0.00081   0.00000  -0.01921  -0.01973   1.83745
    A5        1.96783   0.00130   0.00000   0.01718   0.01732   1.98515
    A6        1.96936   0.00153   0.00000   0.00688   0.00701   1.97637
    A7        1.90195  -0.00122   0.00000  -0.00454  -0.00454   1.89740
    A8        1.90065  -0.00074   0.00000  -0.00319  -0.00320   1.89745
    A9        1.91509   0.00159   0.00000   0.00214   0.00214   1.91723
   A10        1.91471   0.00059   0.00000   0.00102   0.00100   1.91571
   A11        1.91571  -0.00004   0.00000   0.00209   0.00210   1.91781
   A12        1.91560  -0.00019   0.00000   0.00239   0.00239   1.91799
   A13        2.11742  -0.00394   0.00000  -0.02835  -0.02835   2.08907
   A14        1.99967  -0.00312   0.00000  -0.04512  -0.04512   1.95455
   A15        1.95515   0.00103   0.00000  -0.00282  -0.00283   1.95232
   A16        1.89065  -0.00004   0.00000   0.00739   0.00734   1.89800
   A17        1.82179  -0.00053   0.00000   0.00671   0.00670   1.82849
   A18        1.94828  -0.00114   0.00000  -0.01328  -0.01329   1.93499
   A19        1.94282  -0.00020   0.00000  -0.00348  -0.00348   1.93934
   A20        1.89993   0.00094   0.00000   0.00738   0.00732   1.90725
   A21        1.94756  -0.00171   0.00000  -0.01556  -0.01555   1.93200
   A22        1.90262   0.00176   0.00000   0.01542   0.01543   1.91805
   A23        1.93279  -0.00029   0.00000  -0.00262  -0.00266   1.93013
   A24        1.88117  -0.00054   0.00000  -0.00598  -0.00591   1.87526
   A25        1.90339   0.00121   0.00000   0.00811   0.00807   1.91146
   A26        1.89490  -0.00040   0.00000   0.00091   0.00088   1.89578
    D1       -1.14822  -0.00096   0.00000  -0.01514  -0.01497  -1.16319
    D2        3.04684  -0.00052   0.00000  -0.01181  -0.01165   3.03519
    D3        0.94978  -0.00080   0.00000  -0.01407  -0.01391   0.93587
    D4       -3.07629   0.00043   0.00000   0.01961   0.01945  -3.05684
    D5        1.11876   0.00087   0.00000   0.02294   0.02277   1.14153
    D6       -0.97830   0.00059   0.00000   0.02068   0.02052  -0.95778
    D7        1.03396  -0.00006   0.00000   0.00612   0.00612   1.04008
    D8       -1.05417   0.00038   0.00000   0.00945   0.00944  -1.04474
    D9        3.13195   0.00011   0.00000   0.00719   0.00718   3.13914
   D10        2.77842   0.00120   0.00000  -0.01092  -0.01114   2.76728
   D11       -1.62775  -0.00389   0.00000  -0.04631  -0.04605  -1.67380
   D12        0.54006  -0.00055   0.00000  -0.04021  -0.04026   0.49980
   D13       -2.86336  -0.00096   0.00000   0.17095   0.17111  -2.69225
   D14        1.53284   0.00351   0.00000   0.21153   0.21134   1.74418
   D15       -0.63403   0.00031   0.00000   0.19907   0.19910  -0.43493
   D16        1.16602  -0.00032   0.00000   0.01118   0.01116   1.17719
   D17       -0.99050   0.00046   0.00000   0.02468   0.02473  -0.96577
   D18       -3.01293  -0.00035   0.00000   0.00964   0.00960  -3.00333
   D19       -1.17012  -0.00046   0.00000  -0.02312  -0.02316  -1.19328
   D20        3.03735   0.00013   0.00000  -0.01610  -0.01608   3.02127
   D21        0.95372  -0.00031   0.00000  -0.02532  -0.02533   0.92840
   D22        0.95366  -0.00059   0.00000  -0.02514  -0.02516   0.92850
   D23       -1.12205   0.00000   0.00000  -0.01811  -0.01809  -1.14013
   D24        3.07751  -0.00044   0.00000  -0.02734  -0.02733   3.05018
   D25        3.08064  -0.00032   0.00000  -0.02748  -0.02750   3.05314
   D26        1.00493   0.00027   0.00000  -0.02046  -0.02043   0.98451
   D27       -1.07870  -0.00017   0.00000  -0.02968  -0.02967  -1.10837
         Item               Value     Threshold  Converged?
 Maximum Force            0.017368     0.000015     NO 
 RMS     Force            0.002837     0.000010     NO 
 Maximum Displacement     0.187790     0.000060     NO 
 RMS     Displacement     0.036681     0.000040     NO 
 Predicted change in Energy=-1.495134D-03
 Lowest energy point so far.  Saving SCF results.
 GradGradGradGradGradGradGradGradGradGradGradGradGradGradGradGradGradGrad

 Leave Link  103 at Wed Nov 27 10:44:27 2019, MaxMem=  5898240000 cpu:         0.6
 (Enter /apps/gaussian/g09_d01/g09/l202.exe)
                          Input orientation:                          
 ---------------------------------------------------------------------
 Center     Atomic      Atomic             Coordinates (Angstroms)
 Number     Number       Type             X           Y           Z
 ---------------------------------------------------------------------
      1         15           0       -0.687080    0.074282   -0.141461
      2          6           0       -2.189769   -0.711320    0.419840
      3          8           0        0.440699   -0.857930    0.523731
      4          8           0       -0.687839    1.435292    0.736106
      5          6           0        1.767516   -0.872610   -0.026801
      6          1           0       -0.196554    2.142105    0.305358
      7          1           0       -2.262920   -1.695269   -0.041251
      8          1           0       -3.038344   -0.098885    0.117492
      9          1           0       -2.172243   -0.810865    1.504731
     10          6           0        2.476906    0.454454    0.172684
     11          1           0        1.704606   -1.124466   -1.087582
     12          1           0        2.279156   -1.674593    0.503427
     13          1           0        2.011383    1.236043   -0.432742
     14          1           0        3.517954    0.370708   -0.145198
     15          1           0        2.455999    0.746622    1.224210
     16          8           0       -0.486836    0.311516   -1.582372
 ---------------------------------------------------------------------
                    Distance matrix (angstroms):
                    1          2          3          4          5
     1  P    0.000000
     2  C    1.786142   0.000000
     3  O    1.607291   2.636599   0.000000
     4  O    1.619406   2.638894   2.564677   0.000000
     5  C    2.633399   3.985676   1.436574   3.455027   0.000000
     6  H    2.171671   3.482534   3.074734   0.962543   3.613365
     7  H    2.371629   1.089088   2.886156   3.589649   4.113562
     8  H    2.371811   1.089298   3.583981   2.874241   4.869883
     9  H    2.387288   1.089590   2.791423   2.799904   4.227423
    10  C    3.202190   4.816428   2.447800   3.360818   1.517935
    11  H    2.837658   4.196328   2.065147   3.949936   1.092084
    12  H    3.503284   4.572327   2.011784   4.304484   1.089079
    13  H    2.952327   4.708376   2.786864   2.948170   2.161176
    14  H    4.215471   5.836794   3.380313   4.427045   2.150324
    15  H    3.492283   4.935156   2.669586   3.255185   2.158922
    16  O    1.473975   2.820466   2.581394   2.584302   2.983968
                    6          7          8          9         10
     6  H    0.000000
     7  H    4.372121   0.000000
     8  H    3.623962   1.781831   0.000000
     9  H    3.749917   1.783383   1.783670   0.000000
    10  C    3.164358   5.208937   5.543213   4.998997   0.000000
    11  H    4.028049   4.142690   4.999960   4.674227   2.162801
    12  H    4.553631   4.574664   5.559461   4.643661   2.163640
    13  H    2.498145   5.197646   5.252099   5.044439   1.092764
    14  H    4.139857   6.139835   6.578341   6.041252   1.091716
    15  H    3.134916   5.461906   5.668113   4.891327   1.091561
    16  O    2.645533   3.091393   3.093244   3.691956   3.447379
                   11         12         13         14         15
    11  H    0.000000
    12  H    1.778780   0.000000
    13  H    2.468792   3.069189   0.000000
    14  H    2.532166   2.477619   1.761034   0.000000
    15  H    3.067563   2.532406   1.784014   1.773228   0.000000
    16  O    2.666324   3.993232   2.901293   4.255270   4.089804
                   16
    16  O    0.000000
 Stoichiometry    C3H9O3P
 Framework group  C1[X(C3H9O3P)]
 Deg. of freedom    42
 Full point group                 C1      NOp   1
 RotChk:  IX=0 Diff= 4.47D-02
 Largest Abelian subgroup         C1      NOp   1
 Largest concise Abelian subgroup C1      NOp   1
                         Standard orientation:                         
 ---------------------------------------------------------------------
 Center     Atomic      Atomic             Coordinates (Angstroms)
 Number     Number       Type             X           Y           Z
 ---------------------------------------------------------------------
      1         15           0        0.693658    0.064197    0.153006
      2          6           0        2.193382   -0.741585   -0.387223
      3          8           0       -0.437550   -0.872421   -0.500065
      4          8           0        0.707430    1.408920   -0.749216
      5          6           0       -1.766792   -0.868145    0.044766
      6          1           0        0.219105    2.126760   -0.333603
      7          1           0        2.257868   -1.717419    0.092049
      8          1           0        3.044785   -0.129438   -0.092338
      9          1           0        2.179849   -0.860805   -1.470186
     10          6           0       -2.466294    0.459783   -0.182017
     11          1           0       -1.710158   -1.101005    1.110231
     12          1           0       -2.281577   -1.676227   -0.473012
     13          1           0       -1.998086    1.249158    0.411113
     14          1           0       -3.509244    0.388841    0.132729
     15          1           0       -2.438880    0.732554   -1.238592
     16          8           0        0.488832    0.329041    1.588452
 ---------------------------------------------------------------------
 Rotational constants (GHZ):      3.6069154      1.6320328      1.5486742
 Leave Link  202 at Wed Nov 27 10:44:27 2019, MaxMem=  5898240000 cpu:         0.0
 (Enter /apps/gaussian/g09_d01/g09/l301.exe)
 Standard basis: 6-311++G(d,p) (5D, 7F)
 Ernie: Thresh=  0.10000D-02 Tol=  0.10000D-05 Strict=F.
 There are   232 symmetry adapted cartesian basis functions of A   symmetry.
 There are   225 symmetry adapted basis functions of A   symmetry.
   225 basis functions,   347 primitive gaussians,   232 cartesian basis functions
    33 alpha electrons       33 beta electrons
       nuclear repulsion energy       441.5301837564 Hartrees.
 IExCor= 4336 DFT=T Ex+Corr=M062X ExCW=0 ScaHFX=  0.540000
 ScaDFX=  1.000000  1.000000  1.000000  1.000000 ScalE2=  1.000000  1.000000
 IRadAn=      5 IRanWt=     -1 IRanGd=            0 ICorTp=0 IEmpDi=  4
 NAtoms=   16 NActive=   16 NUniq=   16 SFac= 1.00D+00 NAtFMM=   60 NAOKFM=F Big=F
 Integral buffers will be    131072 words long.
 Raffenetti 2 integral format.
 Two-electron integral symmetry is turned on.
 Leave Link  301 at Wed Nov 27 10:44:27 2019, MaxMem=  5898240000 cpu:         0.9
 (Enter /apps/gaussian/g09_d01/g09/l302.exe)
 NPDir=0 NMtPBC=     1 NCelOv=     1 NCel=       1 NClECP=     1 NCelD=      1
         NCelK=      1 NCelE2=     1 NClLst=     1 CellRange=     0.0.
 One-electron integrals computed using PRISM.
 NBasis=   225 RedAO= T EigKep=  6.00D-05  NBF=   225
 NBsUse=   225 1.00D-06 EigRej= -1.00D+00 NBFU=   225
 Precomputing XC quadrature grid using
 IXCGrd= 4 IRadAn=           5 IRanWt=          -1 IRanGd=           0 AccXCQ= 0.00D+00.
 Generated NRdTot=       0 NPtTot=           0 NUsed=           0 NTot=          32
 NSgBfM=   232   232   232   232   232 MxSgAt=    16 MxSgA2=    16.
 Leave Link  302 at Wed Nov 27 10:44:28 2019, MaxMem=  5898240000 cpu:         4.6
 (Enter /apps/gaussian/g09_d01/g09/l303.exe)
 DipDrv:  MaxL=1.
 Leave Link  303 at Wed Nov 27 10:44:28 2019, MaxMem=  5898240000 cpu:         0.9
 (Enter /apps/gaussian/g09_d01/g09/l401.exe)
 Initial guess from the checkpoint file:  "empa_sp.chk"
 B after Tr=     0.000000    0.000000    0.000000
         Rot=    0.999786    0.020364    0.003422    0.001205 Ang=   2.37 deg.
 Guess basis will be translated and rotated to current coordinates.
 JPrj=2 DoOrth=T DoCkMO=T.
 Generating alternative initial guess.
 ExpMin= 3.48D-02 ExpMax= 7.75D+04 ExpMxC= 2.65D+03 IAcc=3 IRadAn=         5 AccDes= 0.00D+00
 Harris functional with IExCor= 1009 and IRadAn=       5 diagonalized for initial guess.
 HarFok:  IExCor= 1009 AccDes= 0.00D+00 IRadAn=         5 IDoV= 1 UseB2=F ITyADJ=14
 ICtDFT=  3500011 ScaDFX=  1.000000  1.000000  1.000000  1.000000
 FoFCou: FMM=F IPFlag=           0 FMFlag=      100000 FMFlg1=           0
         NFxFlg=           0 DoJE=T BraDBF=F KetDBF=T FulRan=T
         wScrn=  0.000000 ICntrl=     500 IOpCl=  0 I1Cent=   200000004 NGrid=           0
         NMat0=    1 NMatS0=      1 NMatT0=    0 NMatD0=    1 NMtDS0=    0 NMtDT0=    0
 Petite list used in FoFCou.
 Harris En= -686.604226263451    
 Leave Link  401 at Wed Nov 27 10:44:30 2019, MaxMem=  5898240000 cpu:        21.2
 (Enter /apps/gaussian/g09_d01/g09/l502.exe)
 Closed shell SCF:
 Using DIIS extrapolation, IDIIS=  1040.
 Integral symmetry usage will be decided dynamically.
 Keep R1 ints in memory in canonical form, NReq=329737126.
 IVT=      184549 IEndB=      184549 NGot=  5898240000 MDV=  5574827427
 LenX=  5574827427 LenY=  5574773162
 Requested convergence on RMS density matrix=1.00D-09 within 128 cycles.
 Requested convergence on MAX density matrix=1.00D-07.
 Requested convergence on             energy=1.00D-07.
 No special actions if energy rises.
 FoFCou: FMM=F IPFlag=           0 FMFlag=           0 FMFlg1=           0
         NFxFlg=           0 DoJE=F BraDBF=F KetDBF=F FulRan=T
         wScrn=  0.000000 ICntrl=     600 IOpCl=  0 I1Cent=           0 NGrid=           0
         NMat0=    1 NMatS0=  25425 NMatT0=    0 NMatD0=    1 NMtDS0=    0 NMtDT0=    0
 Symmetry not used in FoFCou.

 Cycle   1  Pass 1  IDiag  1:
 E= -686.787746962150    
 DIIS: error= 3.08D-03 at cycle   1 NSaved=   1.
 NSaved= 1 IEnMin= 1 EnMin= -686.787746962150     IErMin= 1 ErrMin= 3.08D-03
 ErrMax= 3.08D-03  0.00D+00 EMaxC= 1.00D-01 BMatC= 4.00D-03 BMatP= 4.00D-03
 IDIUse=3 WtCom= 9.69D-01 WtEn= 3.08D-02
 Coeff-Com:  0.100D+01
 Coeff-En:   0.100D+01
 Coeff:      0.100D+01
 Gap=     0.508 Goal=   None    Shift=    0.000
 GapD=    0.508 DampG=2.000 DampE=1.000 DampFc=2.0000 IDamp=-1.
 RMSDP=1.02D-03 MaxDP=2.48D-02              OVMax= 1.75D-02

 Cycle   2  Pass 1  IDiag  1:
 E= -686.792396239799     Delta-E=       -0.004649277649 Rises=F Damp=F
 DIIS: error= 1.15D-03 at cycle   2 NSaved=   2.
 NSaved= 2 IEnMin= 2 EnMin= -686.792396239799     IErMin= 2 ErrMin= 1.15D-03
 ErrMax= 1.15D-03  0.00D+00 EMaxC= 1.00D-01 BMatC= 4.69D-04 BMatP= 4.00D-03
 IDIUse=3 WtCom= 9.88D-01 WtEn= 1.15D-02
 Coeff-Com:  0.603D-01 0.940D+00
 Coeff-En:   0.000D+00 0.100D+01
 Coeff:      0.596D-01 0.940D+00
 Gap=     0.356 Goal=   None    Shift=    0.000
 RMSDP=2.43D-04 MaxDP=5.69D-03 DE=-4.65D-03 OVMax= 9.75D-03

 Cycle   3  Pass 1  IDiag  1:
 E= -686.792366284407     Delta-E=        0.000029955392 Rises=F Damp=F
 DIIS: error= 1.33D-03 at cycle   3 NSaved=   3.
 NSaved= 3 IEnMin= 2 EnMin= -686.792396239799     IErMin= 2 ErrMin= 1.15D-03
 ErrMax= 1.33D-03  0.00D+00 EMaxC= 1.00D-01 BMatC= 6.69D-04 BMatP= 4.69D-04
 IDIUse=3 WtCom= 2.15D-01 WtEn= 7.85D-01
 Coeff-Com: -0.828D-01 0.585D+00 0.498D+00
 Coeff-En:   0.000D+00 0.519D+00 0.481D+00
 Coeff:     -0.178D-01 0.533D+00 0.485D+00
 Gap=     0.360 Goal=   None    Shift=    0.000
 RMSDP=1.73D-04 MaxDP=5.53D-03 DE= 3.00D-05 OVMax= 6.34D-03

 Cycle   4  Pass 1  IDiag  1:
 E= -686.792826346936     Delta-E=       -0.000460062529 Rises=F Damp=F
 DIIS: error= 2.38D-04 at cycle   4 NSaved=   4.
 NSaved= 4 IEnMin= 4 EnMin= -686.792826346936     IErMin= 4 ErrMin= 2.38D-04
 ErrMax= 2.38D-04  0.00D+00 EMaxC= 1.00D-01 BMatC= 1.69D-05 BMatP= 4.69D-04
 IDIUse=3 WtCom= 9.98D-01 WtEn= 2.38D-03
 Coeff-Com: -0.205D-01 0.237D-01 0.148D+00 0.848D+00
 Coeff-En:   0.000D+00 0.000D+00 0.000D+00 0.100D+01
 Coeff:     -0.205D-01 0.236D-01 0.148D+00 0.849D+00
 Gap=     0.359 Goal=   None    Shift=    0.000
 RMSDP=3.83D-05 MaxDP=1.17D-03 DE=-4.60D-04 OVMax= 9.94D-04

 Cycle   5  Pass 1  IDiag  1:
 E= -686.792840613762     Delta-E=       -0.000014266826 Rises=F Damp=F
 DIIS: error= 5.87D-05 at cycle   5 NSaved=   5.
 NSaved= 5 IEnMin= 5 EnMin= -686.792840613762     IErMin= 5 ErrMin= 5.87D-05
 ErrMax= 5.87D-05  0.00D+00 EMaxC= 1.00D-01 BMatC= 1.34D-06 BMatP= 1.69D-05
 IDIUse=1 WtCom= 1.00D+00 WtEn= 0.00D+00
 Coeff-Com:  0.177D-03-0.554D-01 0.101D-01 0.372D+00 0.673D+00
 Coeff:      0.177D-03-0.554D-01 0.101D-01 0.372D+00 0.673D+00
 Gap=     0.359 Goal=   None    Shift=    0.000
 RMSDP=1.02D-05 MaxDP=3.20D-04 DE=-1.43D-05 OVMax= 2.50D-04

 Cycle   6  Pass 1  IDiag  1:
 E= -686.792841662507     Delta-E=       -0.000001048745 Rises=F Damp=F
 DIIS: error= 1.65D-05 at cycle   6 NSaved=   6.
 NSaved= 6 IEnMin= 6 EnMin= -686.792841662507     IErMin= 6 ErrMin= 1.65D-05
 ErrMax= 1.65D-05  0.00D+00 EMaxC= 1.00D-01 BMatC= 1.53D-07 BMatP= 1.34D-06
 IDIUse=1 WtCom= 1.00D+00 WtEn= 0.00D+00
 Coeff-Com:  0.269D-02-0.271D-01-0.161D-01 0.488D-01 0.293D+00 0.698D+00
 Coeff:      0.269D-02-0.271D-01-0.161D-01 0.488D-01 0.293D+00 0.698D+00
 Gap=     0.359 Goal=   None    Shift=    0.000
 RMSDP=2.88D-06 MaxDP=6.22D-05 DE=-1.05D-06 OVMax= 9.22D-05

 Cycle   7  Pass 1  IDiag  1:
 E= -686.792841786809     Delta-E=       -0.000000124302 Rises=F Damp=F
 DIIS: error= 3.80D-06 at cycle   7 NSaved=   7.
 NSaved= 7 IEnMin= 7 EnMin= -686.792841786809     IErMin= 7 ErrMin= 3.80D-06
 ErrMax= 3.80D-06  0.00D+00 EMaxC= 1.00D-01 BMatC= 8.72D-09 BMatP= 1.53D-07
 IDIUse=1 WtCom= 1.00D+00 WtEn= 0.00D+00
 Coeff-Com:  0.997D-03-0.666D-02-0.721D-02-0.541D-02 0.652D-01 0.253D+00
 Coeff-Com:  0.700D+00
 Coeff:      0.997D-03-0.666D-02-0.721D-02-0.541D-02 0.652D-01 0.253D+00
 Coeff:      0.700D+00
 Gap=     0.359 Goal=   None    Shift=    0.000
 RMSDP=7.68D-07 MaxDP=2.53D-05 DE=-1.24D-07 OVMax= 2.22D-05

 Cycle   8  Pass 1  IDiag  1:
 E= -686.792841795089     Delta-E=       -0.000000008280 Rises=F Damp=F
 DIIS: error= 1.27D-06 at cycle   8 NSaved=   8.
 NSaved= 8 IEnMin= 8 EnMin= -686.792841795089     IErMin= 8 ErrMin= 1.27D-06
 ErrMax= 1.27D-06  0.00D+00 EMaxC= 1.00D-01 BMatC= 8.26D-10 BMatP= 8.72D-09
 IDIUse=1 WtCom= 1.00D+00 WtEn= 0.00D+00
 Coeff-Com: -0.912D-04 0.194D-02 0.763D-04-0.866D-02-0.236D-01-0.274D-01
 Coeff-Com:  0.207D+00 0.851D+00
 Coeff:     -0.912D-04 0.194D-02 0.763D-04-0.866D-02-0.236D-01-0.274D-01
 Coeff:      0.207D+00 0.851D+00
 Gap=     0.359 Goal=   None    Shift=    0.000
 RMSDP=2.88D-07 MaxDP=1.00D-05 DE=-8.28D-09 OVMax= 9.86D-06

 Cycle   9  Pass 1  IDiag  1:
 E= -686.792841795998     Delta-E=       -0.000000000909 Rises=F Damp=F
 DIIS: error= 4.77D-07 at cycle   9 NSaved=   9.
 NSaved= 9 IEnMin= 9 EnMin= -686.792841795998     IErMin= 9 ErrMin= 4.77D-07
 ErrMax= 4.77D-07  0.00D+00 EMaxC= 1.00D-01 BMatC= 1.04D-10 BMatP= 8.26D-10
 IDIUse=1 WtCom= 1.00D+00 WtEn= 0.00D+00
 Coeff-Com: -0.970D-04 0.118D-02 0.525D-03-0.300D-02-0.135D-01-0.278D-01
 Coeff-Com:  0.360D-01 0.354D+00 0.652D+00
 Coeff:     -0.970D-04 0.118D-02 0.525D-03-0.300D-02-0.135D-01-0.278D-01
 Coeff:      0.360D-01 0.354D+00 0.652D+00
 Gap=     0.359 Goal=   None    Shift=    0.000
 RMSDP=6.74D-08 MaxDP=1.70D-06 DE=-9.09D-10 OVMax= 1.97D-06

 Cycle  10  Pass 1  IDiag  1:
 E= -686.792841796061     Delta-E=       -0.000000000063 Rises=F Damp=F
 DIIS: error= 1.38D-07 at cycle  10 NSaved=  10.
 NSaved=10 IEnMin=10 EnMin= -686.792841796061     IErMin=10 ErrMin= 1.38D-07
 ErrMax= 1.38D-07  0.00D+00 EMaxC= 1.00D-01 BMatC= 7.00D-12 BMatP= 1.04D-10
 IDIUse=1 WtCom= 1.00D+00 WtEn= 0.00D+00
 Coeff-Com: -0.190D-04 0.147D-03 0.166D-03 0.547D-05-0.162D-02-0.561D-02
 Coeff-Com: -0.113D-01 0.179D-01 0.208D+00 0.792D+00
 Coeff:     -0.190D-04 0.147D-03 0.166D-03 0.547D-05-0.162D-02-0.561D-02
 Coeff:     -0.113D-01 0.179D-01 0.208D+00 0.792D+00
 Gap=     0.359 Goal=   None    Shift=    0.000
 RMSDP=2.36D-08 MaxDP=6.21D-07 DE=-6.30D-11 OVMax= 7.38D-07

 Cycle  11  Pass 1  IDiag  1:
 E= -686.792841796049     Delta-E=        0.000000000012 Rises=F Damp=F
 DIIS: error= 3.66D-08 at cycle  11 NSaved=  11.
 NSaved=11 IEnMin=10 EnMin= -686.792841796061     IErMin=11 ErrMin= 3.66D-08
 ErrMax= 3.66D-08  0.00D+00 EMaxC= 1.00D-01 BMatC= 4.30D-13 BMatP= 7.00D-12
 IDIUse=1 WtCom= 1.00D+00 WtEn= 0.00D+00
 Coeff-Com:  0.298D-05-0.570D-04-0.184D-05 0.243D-03 0.664D-03 0.760D-03
 Coeff-Com: -0.591D-02-0.239D-01 0.199D-02 0.224D+00 0.803D+00
 Coeff:      0.298D-05-0.570D-04-0.184D-05 0.243D-03 0.664D-03 0.760D-03
 Coeff:     -0.591D-02-0.239D-01 0.199D-02 0.224D+00 0.803D+00
 Gap=     0.359 Goal=   None    Shift=    0.000
 RMSDP=6.54D-09 MaxDP=2.24D-07 DE= 1.16D-11 OVMax= 1.65D-07

 Cycle  12  Pass 1  IDiag  1:
 E= -686.792841796057     Delta-E=       -0.000000000008 Rises=F Damp=F
 DIIS: error= 9.19D-09 at cycle  12 NSaved=  12.
 NSaved=12 IEnMin=10 EnMin= -686.792841796061     IErMin=12 ErrMin= 9.19D-09
 ErrMax= 9.19D-09  0.00D+00 EMaxC= 1.00D-01 BMatC= 2.83D-14 BMatP= 4.30D-13
 IDIUse=1 WtCom= 1.00D+00 WtEn= 0.00D+00
 Coeff-Com:  0.181D-05-0.242D-04-0.104D-04 0.730D-04 0.283D-03 0.519D-03
 Coeff-Com: -0.113D-02-0.815D-02-0.104D-01 0.264D-01 0.243D+00 0.750D+00
 Coeff:      0.181D-05-0.242D-04-0.104D-04 0.730D-04 0.283D-03 0.519D-03
 Coeff:     -0.113D-02-0.815D-02-0.104D-01 0.264D-01 0.243D+00 0.750D+00
 Gap=     0.359 Goal=   None    Shift=    0.000
 RMSDP=1.64D-09 MaxDP=4.58D-08 DE=-7.96D-12 OVMax= 3.37D-08

 Cycle  13  Pass 1  IDiag  1:
 E= -686.792841796048     Delta-E=        0.000000000010 Rises=F Damp=F
 DIIS: error= 1.71D-09 at cycle  13 NSaved=  13.
 NSaved=13 IEnMin=10 EnMin= -686.792841796061     IErMin=13 ErrMin= 1.71D-09
 ErrMax= 1.71D-09  0.00D+00 EMaxC= 1.00D-01 BMatC= 1.32D-15 BMatP= 2.83D-14
 IDIUse=1 WtCom= 1.00D+00 WtEn= 0.00D+00
 Coeff-Com:  0.212D-06-0.151D-05-0.238D-05-0.181D-06 0.213D-04 0.687D-04
 Coeff-Com:  0.183D-03-0.163D-03-0.262D-02-0.112D-01-0.588D-02 0.172D+00
 Coeff-Com:  0.848D+00
 Coeff:      0.212D-06-0.151D-05-0.238D-05-0.181D-06 0.213D-04 0.687D-04
 Coeff:      0.183D-03-0.163D-03-0.262D-02-0.112D-01-0.588D-02 0.172D+00
 Coeff:      0.848D+00
 Gap=     0.359 Goal=   None    Shift=    0.000
 RMSDP=5.14D-10 MaxDP=1.26D-08 DE= 9.55D-12 OVMax= 9.28D-09

 SCF Done:  E(RM062X) =  -686.792841796     A.U. after   13 cycles
            NFock= 13  Conv=0.51D-09     -V/T= 2.0023
 KE= 6.851982184388D+02 PE=-2.505592604202D+03 EE= 6.920713602106D+02
 Leave Link  502 at Wed Nov 27 10:45:28 2019, MaxMem=  5898240000 cpu:       585.2
 (Enter /apps/gaussian/g09_d01/g09/l701.exe)
 Compute integral first derivatives.
 ... and contract with generalized density number  0.
 Leave Link  701 at Wed Nov 27 10:45:29 2019, MaxMem=  5898240000 cpu:         2.8
 (Enter /apps/gaussian/g09_d01/g09/l702.exe)
 L702 exits ... SP integral derivatives will be done elsewhere.
 Leave Link  702 at Wed Nov 27 10:45:29 2019, MaxMem=  5898240000 cpu:         0.5
 (Enter /apps/gaussian/g09_d01/g09/l703.exe)
 Compute integral first derivatives, UseDBF=F ICtDFT=           0.
 Integral derivatives from FoFJK, PRISM(SPDF).
 Calling FoFJK, ICntrl=      2127 FMM=F ISym2X=0 I1Cent= 0 IOpClX= 0 NMat=1 NMatS=1 NMatT=0.
 FoFJK:  IHMeth= 1 ICntrl=    2127 DoSepK=F KAlg= 0 I1Cent=   0 FoldK=F
 IRaf=         0 NMat=   1 IRICut=       1 DoRegI=T DoRafI=F ISym2E= 0.
 FoFCou: FMM=F IPFlag=           0 FMFlag=      100000 FMFlg1=         800
         NFxFlg=           0 DoJE=F BraDBF=F KetDBF=F FulRan=T
         wScrn=  0.000000 ICntrl=    2127 IOpCl=  0 I1Cent=           0 NGrid=           0
         NMat0=    1 NMatS0=      1 NMatT0=    0 NMatD0=    1 NMtDS0=    0 NMtDT0=    0
 Symmetry not used in FoFCou.
 Leave Link  703 at Wed Nov 27 10:45:36 2019, MaxMem=  5898240000 cpu:        84.7
 (Enter /apps/gaussian/g09_d01/g09/l716.exe)
 Dipole        =-3.43502485D-01-9.44856317D-02-6.87802558D-01
 ***** Axes restored to original set *****
 -------------------------------------------------------------------
 Center     Atomic                   Forces (Hartrees/Bohr)
 Number     Number              X              Y              Z
 -------------------------------------------------------------------
      1       15           0.000346625   -0.001255540    0.005673011
      2        6          -0.000149982   -0.000075678   -0.000898284
      3        8          -0.001542823    0.000491934   -0.000536132
      4        8           0.000258484   -0.000817513   -0.000562170
      5        6           0.001020024    0.000013878   -0.000079319
      6        1          -0.000519995    0.001162202   -0.000295467
      7        1          -0.000143574   -0.000150423    0.000127855
      8        1          -0.000168209   -0.000032637    0.000100680
      9        1           0.000207981    0.000152783   -0.000127223
     10        6           0.000306047   -0.000019208    0.000031422
     11        1           0.000016124   -0.000022682   -0.000040811
     12        1          -0.000000405   -0.000078369   -0.000127179
     13        1           0.000326097   -0.000106755    0.000015514
     14        1           0.000056468   -0.000201359   -0.000003908
     15        1          -0.000269178    0.000096808   -0.000199254
     16        8           0.000256316    0.000842559   -0.003078735
 -------------------------------------------------------------------
 Cartesian Forces:  Max     0.005673011 RMS     0.001043533
 Leave Link  716 at Wed Nov 27 10:45:36 2019, MaxMem=  5898240000 cpu:         0.5
 (Enter /apps/gaussian/g09_d01/g09/l103.exe)

 GradGradGradGradGradGradGradGradGradGradGradGradGradGradGradGradGradGrad
 Berny optimization.
 Using GEDIIS/GDIIS optimizer.
 FormGI is forming the generalized inverse of G from B-inverse, IUseBI=4.
 Internal  Forces:  Max     0.003179564 RMS     0.000661887
 Search for a local minimum.
 Step number   2 out of a maximum of   78
 All quantities printed in internal units (Hartrees-Bohrs-Radians)
 RMS Force = .66189D-03 SwitMx=.10000D-02 MixMth= 2
 Mixed Optimization -- En-DIIS/RFO-DIIS
 Update second derivatives using D2CorX and points    1    2
 DE= -1.32D-03 DEPred=-1.50D-03 R= 8.83D-01
 TightC=F SS=  1.41D+00  RLast= 3.68D-01 DXNew= 5.0454D-01 1.1029D+00
 Trust test= 8.83D-01 RLast= 3.68D-01 DXMaxT set to 5.05D-01
 ITU=  1  0
 Use linear search instead of GDIIS.
     Eigenvalues ---    0.00080   0.00129   0.00297   0.00632   0.02045
     Eigenvalues ---    0.03652   0.03672   0.04341   0.04416   0.04698
     Eigenvalues ---    0.06271   0.06796   0.08180   0.09853   0.10366
     Eigenvalues ---    0.11708   0.11975   0.12207   0.12344   0.12876
     Eigenvalues ---    0.12975   0.14261   0.16667   0.17062   0.19716
     Eigenvalues ---    0.20512   0.26568   0.28652   0.30558   0.33344
     Eigenvalues ---    0.34254   0.34483   0.34559   0.35059   0.35173
     Eigenvalues ---    0.35216   0.35468   0.35530   0.36852   0.52193
     Eigenvalues ---    0.52652   0.62256
 RFO step:  Lambda=-3.62645933D-04 EMin= 8.01821152D-04
 Quartic linear search produced a step of -0.01072.
 Iteration  1 RMS(Cart)=  0.03610470 RMS(Int)=  0.00672059
 Iteration  2 RMS(Cart)=  0.00656215 RMS(Int)=  0.00012466
 Iteration  3 RMS(Cart)=  0.00011376 RMS(Int)=  0.00000614
 Iteration  4 RMS(Cart)=  0.00000003 RMS(Int)=  0.00000614
 ITry= 1 IFail=0 DXMaxC= 2.19D-01 DCOld= 1.00D+10 DXMaxT= 5.05D-01 DXLimC= 3.00D+00 Rises=F
 Variable       Old X    -DE/DX   Delta X   Delta X   Delta X     New X
                                 (Linear)    (Quad)   (Total)
    R1        3.37532   0.00001  -0.00022   0.00021  -0.00001   3.37531
    R2        3.03734  -0.00055  -0.00010  -0.00635  -0.00646   3.03088
    R3        3.06023  -0.00017  -0.00021  -0.00082  -0.00103   3.05920
    R4        2.78541   0.00318   0.00039   0.00608   0.00647   2.79188
    R5        2.05808   0.00009   0.00002   0.00001   0.00003   2.05810
    R6        2.05847   0.00008   0.00002   0.00003   0.00005   2.05853
    R7        2.05903  -0.00014   0.00002   0.00023   0.00024   2.05927
    R8        2.71473   0.00150   0.00029   0.00366   0.00395   2.71868
    R9        1.81894   0.00072   0.00013   0.00105   0.00118   1.82012
   R10        2.86848  -0.00003  -0.00010  -0.00012  -0.00022   2.86826
   R11        2.06374   0.00005  -0.00002   0.00012   0.00011   2.06385
   R12        2.05806  -0.00001  -0.00002  -0.00018  -0.00020   2.05786
   R13        2.06503  -0.00022   0.00000  -0.00073  -0.00073   2.06430
   R14        2.06304   0.00007   0.00000  -0.00004  -0.00004   2.06301
   R15        2.06275  -0.00016   0.00000  -0.00049  -0.00048   2.06227
    A1        1.77742  -0.00035   0.00027  -0.00430  -0.00404   1.77339
    A2        1.77109   0.00010   0.00019   0.01305   0.01325   1.78435
    A3        2.08551  -0.00034  -0.00031  -0.00238  -0.00268   2.08284
    A4        1.83745   0.00099   0.00021   0.00219   0.00241   1.83986
    A5        1.98515   0.00019  -0.00019   0.00500   0.00480   1.98996
    A6        1.97637  -0.00042  -0.00008  -0.01183  -0.01190   1.96447
    A7        1.89740   0.00036   0.00005   0.00434   0.00439   1.90180
    A8        1.89745   0.00028   0.00003   0.00038   0.00041   1.89786
    A9        1.91723  -0.00051  -0.00002  -0.00395  -0.00397   1.91326
   A10        1.91571  -0.00015  -0.00001   0.00238   0.00236   1.91807
   A11        1.91781   0.00001  -0.00002  -0.00108  -0.00110   1.91671
   A12        1.91799   0.00002  -0.00003  -0.00200  -0.00203   1.91596
   A13        2.08907   0.00266   0.00030   0.00148   0.00178   2.09085
   A14        1.95455   0.00108   0.00048  -0.00815  -0.00766   1.94688
   A15        1.95232   0.00132   0.00003   0.00104   0.00107   1.95339
   A16        1.89800  -0.00031  -0.00008  -0.00234  -0.00242   1.89558
   A17        1.82849  -0.00057  -0.00007  -0.00075  -0.00083   1.82766
   A18        1.93499  -0.00026   0.00014  -0.00019  -0.00005   1.93494
   A19        1.93934  -0.00027   0.00004   0.00210   0.00213   1.94147
   A20        1.90725   0.00006  -0.00008   0.00004  -0.00004   1.90721
[...]
 ! D1    D(3,1,2,7)            -65.6734         -DE/DX =    0.0                 !
 ! D2    D(3,1,2,8)            174.6059         -DE/DX =    0.0                 !
 ! D3    D(3,1,2,9)             54.5705         -DE/DX =    0.0                 !
 ! D4    D(4,1,2,7)           -174.2559         -DE/DX =    0.0                 !
 ! D5    D(4,1,2,8)             66.0234         -DE/DX =    0.0                 !
 ! D6    D(4,1,2,9)            -54.0121         -DE/DX =    0.0                 !
 ! D7    D(16,1,2,7)            61.0177         -DE/DX =    0.0                 !
 ! D8    D(16,1,2,8)           -58.703          -DE/DX =    0.0                 !
 ! D9    D(16,1,2,9)          -178.7385         -DE/DX =    0.0                 !
 ! D10   D(2,1,3,5)            158.4418         -DE/DX =    0.0                 !
 ! D11   D(4,1,3,5)            -94.7161         -DE/DX =    0.0                 !
 ! D12   D(16,1,3,5)            29.0345         -DE/DX =    0.0                 !
 ! D13   D(2,1,4,6)           -136.2078         -DE/DX =    0.0                 !
 ! D14   D(3,1,4,6)            117.821          -DE/DX =    0.0                 !
 ! D15   D(16,1,4,6)            -7.3437         -DE/DX =    0.0                 !
 ! D16   D(1,3,5,10)            69.1072         -DE/DX =    0.0                 !
 ! D17   D(1,3,5,11)           -53.8022         -DE/DX =    0.0                 !
 ! D18   D(1,3,5,12)          -170.2929         -DE/DX =    0.0                 !
 ! D19   D(3,5,10,13)          -69.2243         -DE/DX =    0.0                 !
 ! D20   D(3,5,10,14)          171.8795         -DE/DX =    0.0                 !
 ! D21   D(3,5,10,15)           51.9109         -DE/DX =    0.0                 !
 ! D22   D(11,5,10,13)          52.2905         -DE/DX =    0.0                 !
 ! D23   D(11,5,10,14)         -66.6057         -DE/DX =    0.0                 !
 ! D24   D(11,5,10,15)         173.4257         -DE/DX =    0.0                 !
 ! D25   D(12,5,10,13)         174.1285         -DE/DX =    0.0                 !
 ! D26   D(12,5,10,14)          55.2323         -DE/DX =    0.0                 !
 ! D27   D(12,5,10,15)         -64.7363         -DE/DX =    0.0                 !
 --------------------------------------------------------------------------------
 GradGradGradGradGradGradGradGradGradGradGradGradGradGradGradGradGradGrad

 Leave Link  103 at Wed Nov 27 11:00:59 2019, MaxMem=  5898240000 cpu:         0.7
 (Enter /apps/gaussian/g09_d01/g09/l9999.exe)
 1\1\GINC-CX1-137-3-1\Freq\RM062X\6-311++G(d,p)\C3H9O3P1\SMF115\27-Nov-
 2019\0\\#P Geom=AllCheck Guess=TCheck SCRF=Check GenChk RM062X/6-311++
 G(d,p) Freq\\empa_sp own\\0,1\P,-0.6822362113,0.0824245549,-0.13568057
 16\C,-2.1783655979,-0.7125351466,0.4334494027\O,0.4456401382,-0.851633
 6418,0.5113772012\O,-0.6477256049,1.4477807951,0.7345607966\C,1.774920
 5475,-0.8734803008,-0.0415210533\H,-0.4108165795,2.2071862761,0.191624
 0667\H,-2.2492587301,-1.7008808676,-0.018704039\H,-3.0334078196,-0.107
 5565838,0.133733635\H,-2.1544332167,-0.80390611,1.5190713955\C,2.51013
 78026,0.4317820283,0.1967400208\H,1.7040354812,-1.0937709543,-1.108883
 3604\H,2.2685215082,-1.7025244111,0.4633406375\H,2.071747608,1.2386620
 616,-0.3940745851\H,3.5538943258,0.3261219679,-0.1059510858\H,2.475988
 6169,0.7032584772,1.2529127388\O,-0.5160092686,0.3341558551,-1.5818231
 995\\Version=ES64L-G09RevD.01\State=1-A\HF=-686.7931417\RMSD=1.716e-10
 \RMSF=1.305e-06\ZeroPoint=0.1297917\Thermal=0.1390704\Dipole=0.225094,
 -0.0580138,0.6399346\DipoleDeriv=2.5263532,-0.0225011,-0.0566056,-0.28
 51738,2.1732438,0.0253874,0.1792961,0.0464161,2.0125498,-0.428499,-0.1
 051321,0.0803563,-0.0898526,-0.2367252,0.0349103,0.1276833,0.0684016,-
 0.237705,-1.8901574,0.2194548,0.007145,0.4018645,-0.7501531,0.0801904,
 -0.0650384,0.1394757,-0.6504768,-0.737682,-0.0313962,-0.0218009,-0.002
 0069,-1.2709047,-0.3057211,-0.0133199,-0.3617499,-0.7005488,1.0684368,
 -0.043033,-0.0688866,0.0481789,0.351424,-0.0009436,-0.2595286,0.044140
 4,0.3042814,0.3256623,-0.0448879,0.0368648,-0.0293465,0.4071067,0.0377
 921,0.0169189,0.0125361,0.2515436,0.0832155,-0.0113018,0.0026235,-0.00
 94091,0.0024648,-0.0453416,0.009193,-0.0400269,0.0756887,0.0002162,0.0
 435071,-0.0212978,0.0317558,0.0528974,0.025826,-0.0132518,0.0253435,0.
 0894538,0.0735285,-0.0197248,0.009046,-0.0203959,0.0908351,0.0165987,0
 .001758,0.0130208,-0.0147853,-0.0866497,-0.0425484,-0.0102648,-0.11334
 77,-0.0837326,-0.0075411,0.0083398,-0.0376965,0.0462404,-0.0081415,-0.
 025938,-0.0375333,-0.033123,0.033226,-0.0255807,0.0595122,-0.0659876,-
 0.0630289,-0.0510486,0.0421108,-0.0081369,0.053999,-0.0605298,0.049782
 5,-0.032863,0.080213,0.0385962,0.0417343,0.0709165,-0.0538828,0.037871
 9,-0.0474899,0.0390761,-0.0576035,0.0588073,0.0195304,-0.11699,0.00165
 09,0.0432012,0.0241201,0.0679572,-0.0166572,0.0533675,-0.0110683,0.075
 18,0.0846886,-0.0045583,0.0277688,-0.0267993,0.0338489,-0.0208786,-0.0
 096828,-0.0511721,-0.0798177,-0.8846671,-0.0266183,0.0714031,0.0116645
 ,-0.7634687,0.1131003,-0.0047807,0.0793468,-1.1667018\Polar=73.664718,
 1.4261229,62.0051963,-1.5821652,-0.7275351,59.9968249\PG=C01 [X(C3H9O3
 P1)]\NImag=0\\0.52340482,-0.00159798,0.53621036,-0.05211946,-0.0785698
 0,0.86913054,-0.15401239,-0.05609841,0.03587897,0.47851989,-0.05667426
 ,-0.08047962,0.02001298,-0.04796697,0.54607955,0.04315017,0.02378070,-
 0.07555920,0.03372573,0.01844549,0.55216251,-0.17544190,0.07666869,-0.
 05612463,-0.02582032,0.02006977,-0.01242967,0.45896388,0.07995926,-0.1
 1987137,0.05900347,-0.00194688,0.00258285,0.00029909,-0.12394201,0.191
 92385,-0.04661816,0.05376153,-0.09917731,0.00768369,-0.00240684,0.0085
 2098,-0.02211943,-0.07225862,0.18883790,-0.05791703,-0.01413035,0.0010
 6424,0.00210091,-0.01685399,-0.00761487,0.00816487,0.01693889,0.002558
 37,0.06381369,-0.01527802,-0.20775742,-0.10036587,-0.00023130,-0.01958
 593,-0.01304685,0.01882534,-0.02454958,-0.00750578,0.11028233,0.589633
 05,0.00395512,-0.06783436,-0.12744052,0.00427510,0.00437442,0.00877063
 ,-0.00272076,0.00387329,0.00940079,-0.07933095,-0.11610489,0.32204430,
 -0.04880428,0.03148081,-0.01334484,0.00371489,-0.00030337,-0.00000538,
 -0.17134805,0.00696631,0.05151223,0.00158374,-0.00991732,-0.00033956,0
 .46065148,0.02242649,-0.00335720,-0.00318220,-0.00025344,0.00075275,0.
 00109720,0.00237867,-0.06434103,0.00667848,-0.00157749,-0.00348604,0.0
 0009203,-0.05139525,0.56284032,-0.00668347,-0.00709741,0.01204582,-0.0
 0409930,0.00323306,-0.00166676,0.05901481,0.00257343,-0.09552490,-0.00
 083244,0.00260415,-0.00055482,0.05620890,-0.02460282,0.60543569,0.0021
 0323,-0.00418843,0.00037224,0.00050752,-0.00344720,-0.00204085,-0.0049
 5658,0.00479014,0.00133109,-0.03034015,-0.10336540,0.07336060,0.002312
 89,0.00115974,-0.00025747,0.03517472,-0.00890733,-0.03083008,0.0136997
 0,0.00082525,-0.00048971,-0.00259870,0.00022124,0.00016662,-0.00156983
 ,-0.09726065,-0.33775709,0.20793196,0.00069009,-0.00063796,-0.00004418
 ,0.10393802,0.36330701,-0.00536697,-0.01987977,0.01198375,-0.00070188,
 -0.00325856,-0.00262489,0.00149947,-0.00175386,-0.00110452,0.07923921,
 0.24319685,-0.18902314,-0.00038506,-0.00007626,0.00033008,-0.07420035,
 -0.22177591,0.18222783,0.00112773,-0.02001560,-0.01278313,-0.04489741,
 -0.02079653,-0.00993884,0.00043435,0.00147228,0.00067291,-0.00316329,-
 0.00586109,0.00155907,-0.00032890,0.00048127,0.00028188,-0.00101295,-0
 .00051337,-0.00095844,0.04557141,0.00205285,-0.01196927,-0.00652915,-0
 .01696820,-0.28010857,-0.10808274,0.00054654,0.00085029,0.00055880,-0.
 00188347,-0.00133230,0.00078211,-0.00037024,0.00020783,0.00013087,-0.0
 0036016,0.00001369,-0.00046565,0.01922188,0.29890946,-0.00095613,0.007
 92164,0.00281220,-0.00798319,-0.10538610,-0.09180946,-0.00050613,0.000
 23063,-0.00048634,0.00212033,0.00227204,0.00061452,-0.00004326,-0.0000
 5107,0.00007812,0.00023529,0.00023206,0.00044933,0.00827102,0.11624365
 ,0.09636311,-0.01606256,0.01652135,-0.00904257,-0.22201771,0.12603191,
 -0.06259949,-0.00681799,-0.00036588,0.00206474,0.00209008,-0.00088953,
 0.00081556,0.00091271,-0.00007035,-0.00133036,-0.00014217,-0.00037401,
 -0.00006493,0.00370376,-0.00306928,0.00204454,0.23550704,-0.00828895,0
 .00666979,-0.00493254,0.12180862,-0.12967262,0.04217120,-0.00487881,0.
 00062375,0.00121384,0.00086346,-0.00025285,0.00033701,0.00005865,0.000
 25922,-0.00066655,0.00007673,-0.00010959,-0.00001556,0.02306083,-0.013
 10959,0.00900609,-0.13410427,0.13845662,0.00590880,-0.00610470,0.00145
 588,-0.05998082,0.04177650,-0.06448706,0.00295192,0.00026988,0.0000530
 1,-0.00021353,-0.00044197,-0.00069490,0.00002231,0.00005886,0.00077522
 ,-0.00000817,0.00007310,0.00009520,0.01193638,-0.00607848,0.00278151,0
 .06630303,-0.04685729,0.06645137,0.00305129,-0.00005854,0.02594069,-0.
 04223421,0.00061489,-0.00106973,0.00075157,0.00037271,-0.00296800,0.00
 009148,0.00090564,-0.00252364,-0.00030573,-0.00002898,0.00021683,0.000
 24579,0.00035457,0.00022158,-0.00172074,0.00061640,-0.00292096,0.00126
 298,0.00083493,-0.02598029,0.04342359,0.00252989,-0.00180205,0.0136613
 7,0.00106367,-0.04563424,0.02630458,0.00094326,-0.00029044,-0.00077885
 ,0.00021845,-0.00008438,-0.00213335,-0.00012979,-0.00009504,-0.0000327
 8,0.00028993,0.00025625,0.00016900,0.00054318,0.00497944,-0.02929216,-
 0.00205711,-0.00228475,0.01672103,-0.00034413,0.04559715,-0.00137905,-
 0.00001769,-0.01049066,-0.00619171,0.02388464,-0.32656631,-0.00096826,
 -0.00006608,0.00109060,-0.00013976,-0.00058300,0.00111460,0.00056268,-
 0.00002527,0.00004754,-0.00004708,0.00007623,0.00000508,0.00021937,0.0
 0238296,-0.00995320,0.00084094,-0.00015664,-0.00570492,0.00620627,-0.0
 2616931,0.34961898,0.00113201,-0.00641797,0.00343164,-0.00105906,0.000
 98004,-0.00019904,-0.03821542,-0.02964244,0.00009818,-0.00110006,0.000
 77088,-0.00017354,-0.09696225,-0.04149706,-0.01224507,-0.00003798,-0.0
 0041275,0.00027695,0.00020406,0.00010063,-0.00000626,-0.00035963,-0.00
 008531,0.00014213,0.00013789,0.00000556,-0.00005934,0.56038196,0.00018
 703,0.00449552,-0.00151231,0.00020530,-0.00041768,0.00022001,0.0015057
 0,0.00556152,0.00163605,-0.00137261,-0.00005409,0.00040570,-0.05320853
 ,-0.19169746,-0.02120157,0.00034294,-0.00038756,-0.00024061,-0.0000264
 5,-0.00005522,0.00000121,0.00013525,0.00007447,-0.00005055,-0.00006955
 ,-0.00000719,0.00003640,-0.04111790,0.51785047,-0.00253485,0.00010386,
 -0.00102229,0.00032838,-0.00026160,0.00014473,0.01399208,0.01193914,0.
 00409671,0.00130634,0.00006719,-0.00079096,-0.01648245,-0.02366994,-0.
 09017198,-0.00078464,0.00023673,0.00010335,-0.00000393,-0.00002054,-0.
 00003150,0.00013494,0.00003986,-0.00006041,-0.00001800,0.00001378,0.00
 001681,-0.01017328,-0.01031931,0.58704995,0.00300620,-0.00339181,0.008
 41050,-0.00023723,0.00008283,-0.00049450,-0.01865942,0.00952254,0.0381
 3485,-0.00019858,0.00113537,-0.00069558,-0.05082038,-0.00398479,-0.033
 24778,-0.00022684,0.00011145,0.00005211,-0.00007926,-0.00002017,0.0000
 3332,-0.00012254,-0.00005292,-0.00003266,0.00020342,0.00009020,-0.0001
 5078,0.00098107,-0.00344707,-0.01640166,0.06537390,0.00081779,0.000447
 42,-0.00340244,0.00003401,0.00003542,0.00041473,0.00155171,0.00136971,
 -0.00083790,0.00025960,0.00011055,0.00048750,-0.00345762,-0.06355118,-
 0.04752039,-0.00010082,-0.00010091,-0.00010947,-0.00001335,0.00000702,
 -0.00000217,0.00003530,-0.00000236,-0.00002596,-0.00010328,-0.00007265
 ,0.00003091,-0.00324866,-0.00655200,-0.02968429,0.00657455,0.06462615,
 -0.00275780,0.00267729,-0.00309105,0.00026593,-0.00014372,0.00000404,0
 .01272061,-0.00260919,-0.00949097,0.00020388,-0.00065202,0.00014472,-0
 .02309288,-0.05168162,-0.30570449,0.00010078,0.00005430,-0.00004443,0.
 00003733,-0.00002176,-0.00001326,0.00008630,0.00004217,0.00001008,-0.0
 0002497,-0.00001363,0.00007373,-0.00185012,-0.00047290,-0.00171231,0.0
 1832864,0.05622833,0.32919351,-0.00053938,-0.00247782,0.00338545,-0.00
 094499,0.00063282,-0.00057041,-0.03568511,0.02606636,-0.00937947,0.000
 00723,0.00167156,0.00008663,-0.09435459,0.08715051,-0.05651215,-0.0004
 0026,-0.00000575,0.00013618,-0.00007540,0.00000493,-0.00002112,-0.0003
 1046,-0.00025546,0.00016385,0.00006696,0.00005230,-0.00001240,0.008881
 14,-0.01360605,0.00863971,0.00071195,0.00152448,-0.00238166,0.12241757
 ,-0.00179915,0.00075511,-0.00088759,0.00004330,0.00002289,0.00003691,0
 .00292148,0.00223916,-0.00107198,0.00015319,0.00021120,-0.00000672,0.0
 9371876,-0.20940652,0.09869525,-0.00020647,0.00003915,0.00002955,0.000
 01144,0.00000389,-0.00000742,0.00000406,0.00000168,0.00000706,0.000000
 15,-0.00000482,0.00000877,0.01087863,-0.02183535,0.01462461,-0.0039406
 1,0.00667298,-0.00286049,-0.09880883,0.22315101,0.00193078,0.00036529,
 -0.00246720,0.00034844,-0.00022141,0.00037704,0.01480961,-0.01258643,0
 .00702745,0.00004948,-0.00048336,0.00028187,-0.06477781,0.10253748,-0.
 11859439,0.00003394,-0.00011824,-0.00007556,0.00000920,0.00001877,-0.0
 0000660,0.00012730,0.00007450,-0.00005687,-0.00004195,-0.00003627,0.00
 002171,0.00318484,-0.00627705,0.00393866,-0.01348498,0.02403076,-0.012
 08947,0.05871654,-0.10683962,0.11887233,-0.00164132,-0.00110417,0.0008
 2657,0.00011274,0.00002647,-0.00011899,0.00200500,0.00155258,-0.000484
 39,-0.00042576,0.00031654,0.00017828,0.00670884,-0.01450817,0.01062625
 ,-0.00056548,0.00041435,0.00019420,0.00000685,-0.00000135,-0.00000620,
 0.00001063,0.00000776,-0.00001051,0.00002091,0.00000647,-0.00000567,-0
 .09236445,0.08198852,-0.06011062,0.00036767,0.00106538,0.00020592,-0.0
 0089390,-0.00342875,-0.00067064,0.09819332,-0.00133016,-0.00209619,0.0
 0232443,-0.00010341,0.00013451,-0.00031318,-0.00107948,0.00311563,-0.0
 0106810,0.00063063,0.00024661,-0.00050233,0.01515545,-0.02445078,0.016
 10432,-0.00009523,0.00044455,0.00005086,0.00001472,0.00000264,0.000002
 67,-0.00006682,-0.00003093,0.00001734,0.00008523,0.00002894,-0.0000380
 9,0.07966214,-0.19120972,0.10694323,0.00034287,0.00118410,-0.00000995,
 -0.00384328,-0.00386544,-0.00165638,-0.08701000,0.21077686,0.00049862,
 0.00249745,0.00152332,0.00002348,-0.00022011,-0.00016340,0.00098909,0.
 00008146,-0.00029678,-0.00152781,-0.00090608,-0.00032706,0.00353979,-0
 .00597000,0.00367488,0.00105417,-0.00025493,0.00026915,-0.00006108,-0.
 00003855,0.00002294,0.00002308,0.00001347,0.00000419,0.00002130,0.0000
 3002,-0.00000486,-0.06093671,0.10922414,-0.12974297,0.00080397,-0.0000
 0888,0.00053270,-0.00107898,-0.00170774,0.00087679,0.06593763,-0.11748
 333,0.13433068,0.00199398,-0.00090153,0.00090169,-0.00018995,0.0001247
 5,-0.00002522,-0.00235319,-0.00326662,-0.00108872,-0.00029364,0.000216
 78,-0.00000894,-0.01392201,0.00550168,0.00497101,0.00016082,-0.0001856
 1,0.00005976,0.00002214,0.00001574,0.00000358,-0.00005822,-0.00002055,
 0.00002716,0.00002029,-0.00000030,-0.00000822,-0.29473730,0.02532289,0
 .07174816,0.00016402,-0.00016559,-0.00051263,0.00064780,-0.00017368,0.
 00029810,-0.01147173,0.00069215,0.00363630,0.31930561,0.00079635,-0.00
 408971,0.00118649,-0.00038735,0.00050081,-0.00020247,-0.00830749,-0.00
 424359,-0.00092159,0.00109683,0.00085206,0.00013451,-0.02455986,0.0070
 8650,0.00948771,-0.00052573,0.00022290,-0.00004787,0.00007517,0.000051
 06,-0.00000938,-0.00016590,-0.00007275,0.00005582,0.00006139,0.0000041
 2,-0.00002807,0.02708551,-0.05075590,-0.00897089,0.00068314,0.00067936
 ,-0.00071724,0.00078654,0.00087631,0.00081134,0.02261242,-0.00187775,-
 0.00807769,-0.02720284,0.05204165,0.00018726,0.00020217,-0.00064027,-0
 .00001351,0.00001636,0.00001113,-0.00064898,-0.00091089,0.00140695,0.0
 0011020,0.00006335,0.00036993,-0.00507283,0.00153750,-0.00039463,0.000
 07614,-0.00005071,-0.00009879,0.00000187,0.00000313,0.00000421,-0.0000
 1220,0.00000005,-0.00000533,-0.00000948,-0.00000793,0.00000612,0.07188
 415,-0.00824751,-0.06728464,0.00031940,0.00039437,-0.00025587,0.000134
 27,0.00024269,0.00027122,-0.01781615,0.00059630,0.00498166,-0.07912380
 ,0.00855864,0.06800027,-0.00061162,-0.00038154,-0.00206177,0.00006832,
 0.00003031,0.00013590,0.00213772,0.00145828,0.00031943,0.00064797,0.00
 033898,0.00060398,-0.00141025,-0.00528226,-0.01760046,-0.00014630,0.00
 011870,-0.00026028,0.00003093,0.00001351,-0.00000822,0.00002691,0.0000
 1070,-0.00000867,-0.00005088,-0.00003074,0.00002213,-0.04698533,0.0039
 8362,0.01021111,-0.00114708,-0.00334073,-0.00034458,0.00021083,0.00061
 804,0.00065122,-0.00037652,-0.00439034,-0.01310516,0.00099809,0.007712
 83,0.03027818,0.04703032,-0.00043266,0.00033634,0.00018305,-0.00000078
 ,-0.00006832,-0.00007045,0.00195763,0.00246654,0.00193005,-0.00043413,
 -0.00026510,-0.00017950,0.00171552,-0.00845364,-0.03262957,0.00018139,
 -0.00000170,0.00021381,-0.00001085,-0.00001172,-0.00000215,0.00000800,
 -0.00000010,-0.00000391,-0.00000062,0.00001418,-0.00000141,0.00244248,
 -0.06383907,-0.06152303,-0.00323463,-0.00482666,0.00022099,0.00065978,
 0.00085601,0.00021249,-0.00227807,0.00684071,0.02317967,0.00002367,-0.
 00194567,-0.00216246,-0.00079818,0.06864809,0.00024605,-0.00103281,-0.
 00140881,-0.00005560,0.00009007,0.00014251,-0.00110227,0.00112503,0.00
 136267,0.00072804,0.00048826,0.00056604,0.00097298,-0.00123298,-0.0048
 4812,-0.00027399,0.00002156,-0.00025357,0.00003547,0.00002233,-0.00001
 224,-0.00001267,-0.00000992,-0.00000012,-0.00003187,-0.00002748,0.0000
 1006,0.00830163,-0.06329071,-0.30542649,0.00014794,-0.00076759,0.00143
 933,-0.00020303,-0.00041043,0.00051744,0.00142964,-0.00462177,-0.01473
 539,-0.00035827,-0.00098486,-0.00635914,-0.00934015,0.07063121,0.32863
 897,-0.08078876,-0.01390670,0.06526442,0.00638901,-0.00255145,0.020095
 20,0.00684060,0.01006448,-0.02171733,0.01493854,0.00107925,0.00095865,
 0.00237191,-0.00050057,0.00148881,-0.00267626,0.00098580,0.00025846,0.
 00017671,0.00010039,-0.00025661,0.00237718,0.00096461,-0.00122093,-0.0
 0496461,-0.00318083,0.00111089,0.00010334,-0.00082309,0.00014872,0.000
 68309,-0.00143277,-0.00098476,0.00026060,0.00000845,-0.00118407,0.0003
 1321,0.00133552,0.00018231,-0.00028671,0.00023901,-0.00029454,-0.00042
 313,0.00020145,-0.00048390,0.05468529,-0.01446114,-0.08666163,0.089310
 41,-0.00002341,0.00634791,0.01154449,0.01061776,0.00239609,0.02264074,
 0.00306932,0.00407132,-0.03165737,-0.00644359,-0.00166977,0.00096649,0
 .00151055,0.00586441,0.00396344,0.00235648,0.00156134,-0.00115954,-0.0
 0157273,-0.00054999,0.00058325,-0.00324079,-0.00060453,0.00066566,0.00
 049623,-0.00117073,0.00048119,-0.00047094,-0.00002694,-0.00004054,0.00
 044792,0.00028275,0.00016814,0.00034001,0.00075627,-0.00035891,0.00001
 905,0.00067062,-0.00023505,-0.00006117,0.00025011,0.00000012,0.0074164
 6,0.06848279,0.06253909,0.08922662,-0.57765421,-0.00350372,0.00006483,
 -0.00725652,-0.00935747,0.01078964,-0.01571624,0.00227929,-0.00860202,
 -0.02447600,0.01072519,-0.00150939,-0.00492725,0.00104829,0.00408686,-
 0.00223887,0.00072092,0.00109424,-0.00081332,0.00062180,-0.00025967,-0
 .00061686,0.00298222,0.00159200,0.00071472,-0.00167616,0.00008901,0.00
 089335,-0.00172276,0.00077250,0.00100375,-0.00110342,0.00014714,0.0011
 0558,-0.00017533,-0.00034603,-0.00094582,-0.00051996,-0.00027444,-0.00
 001281,0.00050734,0.00000122,0.00036687,-0.06336532,-0.09687251,0.6305
 7363\\-0.00000048,0.00000006,0.00000154,0.00000061,-0.00000045,0.00000
 251,0.00000057,-0.00000035,-0.00000027,0.00000001,-0.00000047,0.000000
 91,0.00000003,0.00000036,-0.00000145,-0.00000031,-0.00000010,0.0000004
 8,0.00000018,-0.00000054,0.00000265,0.00000006,-0.00000064,0.00000346,
 0.00000156,-0.00000051,0.00000256,-0.00000001,0.00000052,-0.00000227,-
 0.00000103,0.00000028,-0.00000144,0.00000066,0.00000037,-0.00000209,-0
 .00000078,0.00000034,-0.00000179,-0.00000031,0.00000060,-0.00000338,0.
 00000095,0.00000040,-0.00000226,-0.00000172,0.00000013,0.00000085\\\@


 THERE IS MUCH PLEASURE TO BE GAINED FROM USELESS KNOWLEDGE

                                       -- BERTRAND RUSSELL
 Job cpu time:       0 days  1 hours 26 minutes  6.9 seconds.
 File lengths (MBytes):  RWF=     84 Int=      0 D2E=      0 Chk=     11 Scr=      1
 Normal termination of Gaussian 09 at Wed Nov 27 11:01:00 2019.
