 Entering Gaussian System, Link 0=g09
 Input=/rdsgpfs/general/user/smf115/home/vxHydrolysis/ReactionSMD/Diffuse/path1/Int1c_sp.com
 Output=/rdsgpfs/general/user/smf115/home/vxHydrolysis/ReactionSMD/Diffuse/path1/Int1c_sp.log
 Initial command:
 /apps/gaussian/g09_d01/g09/l1.exe "/tmp/pbs.696419.pbs/Gau-26749.inp" -scrdir="/tmp/pbs.696419.pbs/"
 Entering Link 1 = /apps/gaussian/g09_d01/g09/l1.exe PID=     26750.
  
 Copyright (c) 1988,1990,1992,1993,1995,1998,2003,2009,2013,
            Gaussian, Inc.  All Rights Reserved.
  
 This is part of the Gaussian(R) 09 program.  It is based on
 the Gaussian(R) 03 system (copyright 2003, Gaussian, Inc.),
 the Gaussian(R) 98 system (copyright 1998, Gaussian, Inc.),
 the Gaussian(R) 94 system (copyright 1995, Gaussian, Inc.),
 the Gaussian 92(TM) system (copyright 1992, Gaussian, Inc.),
 the Gaussian 90(TM) system (copyright 1990, Gaussian, Inc.),
 the Gaussian 88(TM) system (copyright 1988, Gaussian, Inc.),
 the Gaussian 86(TM) system (copyright 1986, Carnegie Mellon
 University), and the Gaussian 82(TM) system (copyright 1983,
 Carnegie Mellon University). Gaussian is a federally registered
 trademark of Gaussian, Inc.
  
 This software contains proprietary and confidential information,
 including trade secrets, belonging to Gaussian, Inc.
  
 This software is provided under written license and may be
 used, copied, transmitted, or stored only in accord with that
 written license.
  
 The following legend is applicable only to US Government
 contracts under FAR:
  
                    RESTRICTED RIGHTS LEGEND
  
 Use, reproduction and disclosure by the US Government is
 subject to restrictions as set forth in subparagraphs (a)
 and (c) of the Commercial Computer Software - Restricted
 Rights clause in FAR 52.227-19.
  
 Gaussian, Inc.
 340 Quinnipiac St., Bldg. 40, Wallingford CT 06492
  
  
 ---------------------------------------------------------------
 Warning -- This program may not be used in any manner that
 competes with the business of Gaussian, Inc. or will provide
 assistance to any competitor of Gaussian, Inc.  The licensee
 of this program is prohibited from giving any competitor of
 Gaussian, Inc. access to this program.  By using this program,
 the user acknowledges that Gaussian, Inc. is engaged in the
 business of creating and licensing software in the field of
 computational chemistry and represents and warrants to the
 licensee that it is not a competitor of Gaussian, Inc. and that
 it will not use this program in any manner prohibited above.
 ---------------------------------------------------------------
  

 Cite this work as:
 Gaussian 09, Revision D.01,
 M. J. Frisch, G. W. Trucks, H. B. Schlegel, G. E. Scuseria, 
 M. A. Robb, J. R. Cheeseman, G. Scalmani, V. Barone, B. Mennucci, 
 G. A. Petersson, H. Nakatsuji, M. Caricato, X. Li, H. P. Hratchian, 
 A. F. Izmaylov, J. Bloino, G. Zheng, J. L. Sonnenberg, M. Hada, 
 M. Ehara, K. Toyota, R. Fukuda, J. Hasegawa, M. Ishida, T. Nakajima, 
 Y. Honda, O. Kitao, H. Nakai, T. Vreven, J. A. Montgomery, Jr., 
 J. E. Peralta, F. Ogliaro, M. Bearpark, J. J. Heyd, E. Brothers, 
 K. N. Kudin, V. N. Staroverov, T. Keith, R. Kobayashi, J. Normand, 
 K. Raghavachari, A. Rendell, J. C. Burant, S. S. Iyengar, J. Tomasi, 
 M. Cossi, N. Rega, J. M. Millam, M. Klene, J. E. Knox, J. B. Cross, 
 V. Bakken, C. Adamo, J. Jaramillo, R. Gomperts, R. E. Stratmann, 
 O. Yazyev, A. J. Austin, R. Cammi, C. Pomelli, J. W. Ochterski, 
 R. L. Martin, K. Morokuma, V. G. Zakrzewski, G. A. Voth, 
 P. Salvador, J. J. Dannenberg, S. Dapprich, A. D. Daniels, 
 O. Farkas, J. B. Foresman, J. V. Ortiz, J. Cioslowski, 
 and D. J. Fox, Gaussian, Inc., Wallingford CT, 2013.
 
 ******************************************
 Gaussian 09:  ES64L-G09RevD.01 24-Apr-2013
                 5-Nov-2019 
 ******************************************
 %Chk=Int1c_sp
 %NProcShared=16
 Will use up to   16 processors via shared memory.
 %Mem=52000MB
 ----------------------------------------------------------------------
 #P M062X/6-311++G(d,p) Opt(RCFC,Tight) Freq SCRF(SMD) SCF(Conver=9) In
 t(Grid=UltraFine) Geom(Check) Guess(Read)
 ----------------------------------------------------------------------
 1/7=10,10=5,14=-1,18=20,19=15,26=4,29=2,38=1/1,3;
 2/9=110,12=2,40=1/2;
 3/5=4,6=6,7=1111,11=2,14=-4,16=1,25=1,30=1,70=32201,71=1,72=1,74=-55,75=-5,116=-2/1,2,3;
 4/5=1/1;
 5/5=2,6=9,38=6/2;
 6/7=2,8=2,9=2,10=2,28=1/1;
 7//1,2,3,16;
 1/7=10,14=-1,18=20,19=15,26=4/3(2);
 2/9=110/2;
 99//99;
 2/9=110/2;
 3/5=4,6=6,7=1111,11=2,14=-2,16=1,25=1,30=1,70=32205,71=1,74=-55,75=-5/1,2,3;
 4/5=5,16=3,69=1/1;
 5/5=2,6=9,38=5/2;
 7//1,2,3,16;
 1/7=10,14=-1,18=20,19=15,26=4/3(-5);
 2/9=110/2;
 6/7=2,8=2,9=2,10=2,19=2,28=1/1;
 99/9=1/99;
 Leave Link    1 at Tue Nov  5 11:43:51 2019, MaxMem=  6815744000 cpu:         1.2
 (Enter /apps/gaussian/g09_d01/g09/l101.exe)
 -----------------
 Int1c_sp opt freq
 -----------------
 Structure from the checkpoint file:  "Int1c_sp.chk"
 Charge =  0 Multiplicity = 1
 Redundant internal coordinates found in file.
 P,0,2.225888608,-0.484944315,0.0143299024
 S,0,1.0678785299,0.3255537414,1.810429789
 O,0,1.4753599128,0.3963865559,-1.1214687787
 C,0,-0.4482220714,-0.6699231674,2.060745176
 C,0,0.8537771116,1.6960124163,-0.9947113529
 O,0,1.6938972706,-1.953190191,0.4767621927
 C,0,3.7531337323,0.2323389915,0.6881546262
 H,0,4.2989790173,-0.5868551497,1.1624845484
 H,0,3.5679813293,1.0134706585,1.4214231976
 H,0,4.3472752764,0.6161044165,-0.1422923253
 H,0,0.0725327958,1.6392071707,-0.241847125
 H,0,0.392390277,1.8506973764,-1.9713119866
 C,0,1.869853132,2.7771930662,-0.7011400192
 H,0,1.3826186281,3.7523694494,-0.7742619348
 H,0,2.690159824,2.7475049704,-1.4220143181
 H,0,2.2786452391,2.6792096845,0.3069473158
 C,0,-1.7528572833,-0.1015453045,1.5138079059
 H,0,-0.2592628641,-1.6834579264,1.7141155441
 H,0,-0.5592715371,-0.7266866549,3.1458269484
 H,0,-2.5543322521,-0.7265223952,1.9433624316
 N,0,-1.8560426503,0.0006095034,0.0635386713
 H,0,-1.8901210317,0.9009379581,1.9301908773
 C,0,-3.0431404345,0.7731786472,-0.3607124935
 C,0,-1.642951399,-1.2685679172,-0.650983871
 C,0,-1.4346838846,-1.0421333773,-2.1499598764
 C,0,-2.7201055637,-2.33751378,-0.4271268775
 H,0,-0.6991413602,-1.6631588347,-0.2676978651
 H,0,-3.2581425438,0.4745884771,-1.3885023307
 C,0,-2.72051885,2.2680976329,-0.3800696095
 C,0,-4.3197814361,0.5279775495,0.4582649327
 H,0,-0.7883072435,-0.1804042697,-2.329799783
 H,0,-2.3779730005,-0.8855231337,-2.6791905504
 H,0,-0.9601061264,-1.9231690097,-2.5898216323
 H,0,-2.8949342907,-2.5249007911,0.63550325
 H,0,-2.4087696058,-3.2796132436,-0.8869595995
 H,0,-3.6664579249,-2.0385647383,-0.8870061418
 H,0,-3.605920053,2.8466356589,-0.6580708742
 H,0,-1.9279555731,2.4852904182,-1.0988633743
 H,0,-2.3939268732,2.6115252957,0.6064290145
 H,0,-5.1659121456,1.0024228631,-0.045332262
 H,0,-4.2430881129,0.9663583216,1.4571426528
 H,0,-4.5436458046,-0.5345639479,0.5678849066
 O,0,3.0685437467,-1.3087122254,-1.2456890559
 H,0,3.3951692754,-0.6964983375,-1.9146096967
 H,0,1.9878582096,-2.6333351134,-0.1478881493
 Recover connectivity data from disk.
 NAtoms=     45 NQM=       45 NQMF=       0 NMMI=      0 NMMIF=      0
                NMic=       0 NMicF=      0.
                    Isotopes and Nuclear Properties:
 (Nuclear quadrupole moments (NQMom) in fm**2, nuclear magnetic moments (NMagM)
  in nuclear magnetons)

  Atom         1           2           3           4           5           6           7           8           9          10
 IAtWgt=          31          32          16          12          12          16          12           1           1           1
 AtmWgt=  30.9737634  31.9720718  15.9949146  12.0000000  12.0000000  15.9949146  12.0000000   1.0078250   1.0078250   1.0078250
 NucSpn=           1           0           0           0           0           0           0           1           1           1
 AtZEff= -12.9400000 -13.6000000  -5.6000000  -3.6000000  -3.6000000  -5.6000000  -3.6000000  -1.0000000  -1.0000000  -1.0000000
 NQMom=    0.0000000   0.0000000   0.0000000   0.0000000   0.0000000   0.0000000   0.0000000   0.0000000   0.0000000   0.0000000
 NMagM=    1.1316000   0.0000000   0.0000000   0.0000000   0.0000000   0.0000000   0.0000000   2.7928460   2.7928460   2.7928460
 AtZNuc=  15.0000000  16.0000000   8.0000000   6.0000000   6.0000000   8.0000000   6.0000000   1.0000000   1.0000000   1.0000000

  Atom        11          12          13          14          15          16          17          18          19          20
 IAtWgt=           1           1          12           1           1           1          12           1           1           1
 AtmWgt=   1.0078250   1.0078250  12.0000000   1.0078250   1.0078250   1.0078250  12.0000000   1.0078250   1.0078250   1.0078250
 NucSpn=           1           1           0           1           1           1           0           1           1           1
 AtZEff=  -1.0000000  -1.0000000  -3.6000000  -1.0000000  -1.0000000  -1.0000000  -3.6000000  -1.0000000  -1.0000000  -1.0000000
 NQMom=    0.0000000   0.0000000   0.0000000   0.0000000   0.0000000   0.0000000   0.0000000   0.0000000   0.0000000   0.0000000
 NMagM=    2.7928460   2.7928460   0.0000000   2.7928460   2.7928460   2.7928460   0.0000000   2.7928460   2.7928460   2.7928460
 AtZNuc=   1.0000000   1.0000000   6.0000000   1.0000000   1.0000000   1.0000000   6.0000000   1.0000000   1.0000000   1.0000000

  Atom        21          22          23          24          25          26          27          28          29          30
 IAtWgt=          14           1          12          12          12          12           1           1          12          12
 AtmWgt=  14.0030740   1.0078250  12.0000000  12.0000000  12.0000000  12.0000000   1.0078250   1.0078250  12.0000000  12.0000000
 NucSpn=           2           1           0           0           0           0           1           1           0           0
 AtZEff=  -4.5500000  -1.0000000  -3.6000000  -3.6000000  -3.6000000  -3.6000000  -1.0000000  -1.0000000  -3.6000000  -3.6000000
 NQMom=    2.0440000   0.0000000   0.0000000   0.0000000   0.0000000   0.0000000   0.0000000   0.0000000   0.0000000   0.0000000
 NMagM=    0.4037610   2.7928460   0.0000000   0.0000000   0.0000000   0.0000000   2.7928460   2.7928460   0.0000000   0.0000000
 AtZNuc=   7.0000000   1.0000000   6.0000000   6.0000000   6.0000000   6.0000000   1.0000000   1.0000000   6.0000000   6.0000000

  Atom        31          32          33          34          35          36          37          38          39          40
 IAtWgt=           1           1           1           1           1           1           1           1           1           1
 AtmWgt=   1.0078250   1.0078250   1.0078250   1.0078250   1.0078250   1.0078250   1.0078250   1.0078250   1.0078250   1.0078250
 NucSpn=           1           1           1           1           1           1           1           1           1           1
 AtZEff=  -1.0000000  -1.0000000  -1.0000000  -1.0000000  -1.0000000  -1.0000000  -1.0000000  -1.0000000  -1.0000000  -1.0000000
 NQMom=    0.0000000   0.0000000   0.0000000   0.0000000   0.0000000   0.0000000   0.0000000   0.0000000   0.0000000   0.0000000
 NMagM=    2.7928460   2.7928460   2.7928460   2.7928460   2.7928460   2.7928460   2.7928460   2.7928460   2.7928460   2.7928460
 AtZNuc=   1.0000000   1.0000000   1.0000000   1.0000000   1.0000000   1.0000000   1.0000000   1.0000000   1.0000000   1.0000000

  Atom        41          42          43          44          45
 IAtWgt=           1           1          16           1           1
 AtmWgt=   1.0078250   1.0078250  15.9949146   1.0078250   1.0078250
 NucSpn=           1           1           0           1           1
 AtZEff=  -1.0000000  -1.0000000  -5.6000000  -1.0000000  -1.0000000
 NQMom=    0.0000000   0.0000000   0.0000000   0.0000000   0.0000000
 NMagM=    2.7928460   2.7928460   0.0000000   2.7928460   2.7928460
 AtZNuc=   1.0000000   1.0000000   8.0000000   1.0000000   1.0000000
 Leave Link  101 at Tue Nov  5 11:43:51 2019, MaxMem=  6815744000 cpu:        15.1
 (Enter /apps/gaussian/g09_d01/g09/l103.exe)

 GradGradGradGradGradGradGradGradGradGradGradGradGradGradGradGradGradGrad
 Berny optimization.
 Initialization pass.
 Cartesian force constants read from checkpoint file:
 "Int1c_sp.chk"
 FormGI is forming the generalized inverse of G from B-inverse, IUseBI=4.
                           ----------------------------
                           !    Initial Parameters    !
                           ! (Angstroms and Degrees)  !
 --------------------------                            --------------------------
 ! Name  Definition              Value          Derivative Info.                !
 --------------------------------------------------------------------------------
 ! R1    R(1,2)                  2.2856         D2E/DX2 =    0.1028             !
 ! R2    R(1,3)                  1.6218         D2E/DX2 =    0.3236             !
 ! R3    R(1,6)                  1.6287         D2E/DX2 =    0.3052             !
 ! R4    R(1,7)                  1.8169         D2E/DX2 =    0.2137             !
 ! R5    R(1,43)                 1.7252         D2E/DX2 =    0.2093             !
 ! R6    R(2,4)                  1.8309         D2E/DX2 =    0.2067             !
 ! R7    R(3,5)                  1.4462         D2E/DX2 =    0.3106             !
 ! R8    R(4,17)                 1.5246         D2E/DX2 =    0.2959             !
 ! R9    R(4,18)                 1.0877         D2E/DX2 =    0.3533             !
 ! R10   R(4,19)                 1.0922         D2E/DX2 =    0.341              !
 ! R11   R(5,11)                 1.0865         D2E/DX2 =    0.3557             !
 ! R12   R(5,12)                 1.0911         D2E/DX2 =    0.3439             !
 ! R13   R(5,13)                 1.5125         D2E/DX2 =    0.3034             !
 ! R14   R(6,45)                 0.9691         D2E/DX2 =    0.5161             !
 ! R15   R(7,8)                  1.0927         D2E/DX2 =    0.347              !
 ! R16   R(7,9)                  1.0873         D2E/DX2 =    0.3559             !
 ! R17   R(7,10)                 1.0908         D2E/DX2 =    0.349              !
 ! R18   R(13,14)                1.0926         D2E/DX2 =    0.3444             !
 ! R19   R(13,15)                1.0924         D2E/DX2 =    0.3436             !
 ! R20   R(13,16)                1.0922         D2E/DX2 =    0.345              !
 ! R21   R(17,20)                1.1034         D2E/DX2 =    0.3141             !
 ! R22   R(17,21)                1.4575         D2E/DX2 =    0.3408             !
 ! R23   R(17,22)                1.0942         D2E/DX2 =    0.3371             !
 ! R24   R(21,23)                1.4785         D2E/DX2 =    0.3268             !
 ! R25   R(21,24)                1.472          D2E/DX2 =    0.3296             !
 ! R26   R(23,28)                1.0917         D2E/DX2 =    0.3429             !
 ! R27   R(23,29)                1.5295         D2E/DX2 =    0.2853             !
 ! R28   R(23,30)                1.5364         D2E/DX2 =    0.2746             !
 ! R29   R(24,25)                1.5302         D2E/DX2 =    0.2896             !
 ! R30   R(24,26)                1.534          D2E/DX2 =    0.2737             !
 ! R31   R(24,27)                1.0924         D2E/DX2 =    0.3413             !
 ! R32   R(25,31)                1.0921         D2E/DX2 =    0.3463             !
 ! R33   R(25,32)                1.0929         D2E/DX2 =    0.3412             !
 ! R34   R(25,33)                1.0931         D2E/DX2 =    0.3413             !
 ! R35   R(26,34)                1.0931         D2E/DX2 =    0.3419             !
 ! R36   R(26,35)                1.0936         D2E/DX2 =    0.3404             !
 ! R37   R(26,36)                1.0938         D2E/DX2 =    0.34               !
 ! R38   R(29,37)                1.0936         D2E/DX2 =    0.3407             !
 ! R39   R(29,38)                1.0918         D2E/DX2 =    0.345              !
 ! R40   R(29,39)                1.0944         D2E/DX2 =    0.339              !
 ! R41   R(30,40)                1.093          D2E/DX2 =    0.3414             !
 ! R42   R(30,41)                1.0935         D2E/DX2 =    0.3407             !
 ! R43   R(30,42)                1.0914         D2E/DX2 =    0.3471             !
 ! R44   R(43,44)                0.9638         D2E/DX2 =    0.537              !
 ! A1    A(2,1,3)               97.0755         D2E/DX2 =    0.0512             !
 ! A2    A(2,1,6)               86.0471         D2E/DX2 =    0.0552             !
 ! A3    A(2,1,7)               89.682          D2E/DX2 =    0.0646             !
 ! A4    A(3,1,6)              122.5203         D2E/DX2 =    0.0305             !
 ! A5    A(3,1,7)              115.7351         D2E/DX2 =    0.0406             !
 ! A6    A(3,1,43)              88.5115         D2E/DX2 =    0.0514             !
 ! A7    A(6,1,7)              121.6797         D2E/DX2 =    0.0254             !
 ! A8    A(6,1,43)              86.357          D2E/DX2 =    0.0616             !
 ! A9    A(7,1,43)              92.7972         D2E/DX2 =    0.0698             !
 ! A10   A(1,2,4)              109.5225         D2E/DX2 =    0.3584             !
 ! A11   A(1,3,5)              128.7478         D2E/DX2 =    0.3705             !
 ! A12   A(2,4,17)             117.1849         D2E/DX2 =    0.2615             !
 ! A13   A(2,4,18)             108.6152         D2E/DX2 =    0.0741             !
 ! A14   A(2,4,19)             104.3752         D2E/DX2 =    0.0691             !
 ! A15   A(17,4,18)            112.4408         D2E/DX2 =    0.0766             !
 ! A16   A(17,4,19)            106.7846         D2E/DX2 =    0.0834             !
 ! A17   A(18,4,19)            106.6085         D2E/DX2 =    0.0277             !
 ! A18   A(3,5,11)             108.8334         D2E/DX2 =    0.0719             !
 ! A19   A(3,5,12)             103.338          D2E/DX2 =    0.0661             !
 ! A20   A(3,5,13)             111.7569         D2E/DX2 =    0.1816             !
 ! A21   A(11,5,12)            108.879          D2E/DX2 =    0.0297             !
 ! A22   A(11,5,13)            112.7028         D2E/DX2 =    0.0692             !
 ! A23   A(12,5,13)            110.883          D2E/DX2 =    0.0716             !
 ! A24   A(1,6,45)             110.5237         D2E/DX2 =    0.1457             !
 ! A25   A(1,7,8)              106.5542         D2E/DX2 =    0.0871             !
 ! A26   A(1,7,9)              112.9925         D2E/DX2 =    0.0958             !
 ! A27   A(1,7,10)             108.324          D2E/DX2 =    0.0951             !
 ! A28   A(8,7,9)              109.3246         D2E/DX2 =    0.0434             !
 ! A29   A(8,7,10)             108.7921         D2E/DX2 =    0.0376             !
 ! A30   A(9,7,10)             110.6973         D2E/DX2 =    0.0475             !
 ! A31   A(5,13,14)            108.9932         D2E/DX2 =    0.0943             !
 ! A32   A(5,13,15)            110.9124         D2E/DX2 =    0.099              !
 ! A33   A(5,13,16)            111.4974         D2E/DX2 =    0.1028             !
 ! A34   A(14,13,15)           108.358          D2E/DX2 =    0.0465             !
 ! A35   A(14,13,16)           107.9839         D2E/DX2 =    0.0483             !
 ! A36   A(15,13,16)           108.9997         D2E/DX2 =    0.0506             !
 ! A37   A(4,17,20)            105.7096         D2E/DX2 =    0.0804             !
 ! A38   A(4,17,21)            116.3389         D2E/DX2 =    0.3069             !
 ! A39   A(4,17,22)            108.2045         D2E/DX2 =    0.0762             !
 ! A40   A(20,17,21)           112.064          D2E/DX2 =    0.0786             !
 ! A41   A(20,17,22)           106.2412         D2E/DX2 =    0.022              !
 ! A42   A(21,17,22)           107.7919         D2E/DX2 =    0.0704             !
 ! A43   A(17,21,23)           112.2703         D2E/DX2 =    0.1535             !
 ! A44   A(17,21,24)           114.3505         D2E/DX2 =    0.1402             !
 ! A45   A(23,21,24)           115.3074         D2E/DX2 =    0.1465             !
 ! A46   A(21,23,28)           106.5803         D2E/DX2 =    0.0274             !
 ! A47   A(21,23,29)           110.1816         D2E/DX2 =    0.0911             !
 ! A48   A(21,23,30)           115.5175         D2E/DX2 =    0.0935             !
 ! A49   A(28,23,29)           107.2757         D2E/DX2 =    0.0268             !
 ! A50   A(28,23,30)           107.1305         D2E/DX2 =    0.0283             !
 ! A51   A(29,23,30)           109.7552         D2E/DX2 =    0.0936             !
 ! A52   A(21,24,25)           111.5687         D2E/DX2 =    0.0947             !
 ! A53   A(21,24,26)           115.3628         D2E/DX2 =    0.0922             !
 ! A54   A(21,24,27)           105.4382         D2E/DX2 =    0.028              !
 ! A55   A(25,24,26)           109.9771         D2E/DX2 =    0.0952             !
 ! A56   A(25,24,27)           106.2337         D2E/DX2 =    0.0283             !
 ! A57   A(26,24,27)           107.684          D2E/DX2 =    0.0268             !
 ! A58   A(24,25,31)           111.0155         D2E/DX2 =    0.095              !
 ! A59   A(24,25,32)           112.2157         D2E/DX2 =    0.1049             !
 ! A60   A(24,25,33)           109.5115         D2E/DX2 =    0.1006             !
 ! A61   A(31,25,32)           108.5438         D2E/DX2 =    0.0507             !
 ! A62   A(31,25,33)           108.2243         D2E/DX2 =    0.0471             !
 ! A63   A(32,25,33)           107.179          D2E/DX2 =    0.0503             !
 ! A64   A(24,26,34)           111.9401         D2E/DX2 =    0.0988             !
 ! A65   A(24,26,35)           109.819          D2E/DX2 =    0.0975             !
 ! A66   A(24,26,36)           110.8379         D2E/DX2 =    0.0987             !
 ! A67   A(34,26,35)           107.8553         D2E/DX2 =    0.0489             !
 ! A68   A(34,26,36)           108.4932         D2E/DX2 =    0.0499             !
 ! A69   A(35,26,36)           107.7566         D2E/DX2 =    0.0482             !
 ! A70   A(23,29,37)           110.4578         D2E/DX2 =    0.0993             !
 ! A71   A(23,29,38)           110.8487         D2E/DX2 =    0.1007             !
 ! A72   A(23,29,39)           110.9926         D2E/DX2 =    0.1009             !
 ! A73   A(37,29,38)           108.3689         D2E/DX2 =    0.0491             !
 ! A74   A(37,29,39)           107.7424         D2E/DX2 =    0.0486             !
 ! A75   A(38,29,39)           108.3237         D2E/DX2 =    0.0498             !
 ! A76   A(23,30,40)           109.1697         D2E/DX2 =    0.0969             !
 ! A77   A(23,30,41)           111.3856         D2E/DX2 =    0.1017             !
 ! A78   A(23,30,42)           112.2931         D2E/DX2 =    0.0985             !
 ! A79   A(40,30,41)           107.5263         D2E/DX2 =    0.0481             !
 ! A80   A(40,30,42)           108.0648         D2E/DX2 =    0.0484             !
 ! A81   A(41,30,42)           108.2358         D2E/DX2 =    0.0513             !
 ! A82   A(1,43,44)            111.6613         D2E/DX2 =    0.1248             !
 ! A83   L(2,1,43,3,-1)        185.5869         D2E/DX2 =    0.0334             !
 ! A84   L(2,1,43,3,-2)        185.4618         D2E/DX2 =    0.0507             !
 ! D1    D(3,1,2,4)             87.9686         D2E/DX2 =    0.0362             !
 ! D2    D(6,1,2,4)            -34.3372         D2E/DX2 =    0.021              !
 ! D3    D(7,1,2,4)           -156.1277         D2E/DX2 =    0.0203             !
 ! D4    D(4,2,43,44)          133.5092         D2E/DX2 =    0.0107             !
 ! D5    D(2,1,3,5)             28.1507         D2E/DX2 =    0.0321             !
 ! D6    D(6,1,3,5)            117.9646         D2E/DX2 =    0.0291             !
 ! D7    D(7,1,3,5)            -64.9231         D2E/DX2 =    0.0215             !
 ! D8    D(43,1,3,5)          -157.3111         D2E/DX2 =    0.0318             !
 ! D9    D(2,1,6,45)           177.2733         D2E/DX2 =    0.0227             !
 ! D10   D(3,1,6,45)            81.3974         D2E/DX2 =    0.0237             !
 ! D11   D(7,1,6,45)           -95.5457         D2E/DX2 =    0.0176             !
 ! D12   D(43,1,6,45)           -4.5045         D2E/DX2 =    0.0239             !
 ! D13   D(2,1,7,8)            100.7873         D2E/DX2 =    0.0211             !
 ! D14   D(2,1,7,9)            -19.2887         D2E/DX2 =    0.0214             !
 ! D15   D(2,1,7,10)          -142.3112         D2E/DX2 =    0.0218             !
 ! D16   D(3,1,7,8)           -161.508          D2E/DX2 =    0.0204             !
 ! D17   D(3,1,7,9)             78.4159         D2E/DX2 =    0.0205             !
 ! D18   D(3,1,7,10)           -44.6065         D2E/DX2 =    0.0204             !
 ! D19   D(6,1,7,8)             15.6308         D2E/DX2 =    0.0187             !
 ! D20   D(6,1,7,9)           -104.4453         D2E/DX2 =    0.0189             !
 ! D21   D(6,1,7,10)           132.5323         D2E/DX2 =    0.0193             !
 ! D22   D(43,1,7,8)           -71.8129         D2E/DX2 =    0.0227             !
 ! D23   D(43,1,7,9)           168.1111         D2E/DX2 =    0.023              !
 ! D24   D(43,1,7,10)           45.0887         D2E/DX2 =    0.0232             !
 ! D25   D(3,1,43,44)           44.3077         D2E/DX2 =    0.0174             !
 ! D26   D(6,1,43,44)          167.027          D2E/DX2 =    0.0082             !
 ! D27   D(7,1,43,44)          -71.3889         D2E/DX2 =    0.0123             !
 ! D28   D(1,2,4,17)           -99.002          D2E/DX2 =    0.0398             !
 ! D29   D(1,2,4,18)            29.7401         D2E/DX2 =    0.0218             !
 ! D30   D(1,2,4,19)           143.1738         D2E/DX2 =    0.0295             !
 ! D31   D(1,3,5,11)           -58.7443         D2E/DX2 =    0.021              !
 ! D32   D(1,3,5,12)          -174.3528         D2E/DX2 =    0.0254             !
 ! D33   D(1,3,5,13)            66.3681         D2E/DX2 =    0.0258             !
 ! D34   D(2,4,17,20)         -168.4504         D2E/DX2 =    0.0249             !
 ! D35   D(2,4,17,21)           66.473          D2E/DX2 =    0.032              !
 ! D36   D(2,4,17,22)          -54.9758         D2E/DX2 =    0.0185             !
 ! D37   D(18,4,17,20)          64.6534         D2E/DX2 =    0.0162             !
 ! D38   D(18,4,17,21)         -60.4232         D2E/DX2 =    0.0171             !
 ! D39   D(18,4,17,22)         178.128          D2E/DX2 =    0.0207             !
 ! D40   D(19,4,17,20)         -51.9353         D2E/DX2 =    0.0167             !
 ! D41   D(19,4,17,21)        -177.0118         D2E/DX2 =    0.0217             !
 ! D42   D(19,4,17,22)          61.5393         D2E/DX2 =    0.0157             !
 ! D43   D(3,5,13,14)          170.9499         D2E/DX2 =    0.0161             !
 ! D44   D(3,5,13,15)           51.7343         D2E/DX2 =    0.0174             !
 ! D45   D(3,5,13,16)          -69.939          D2E/DX2 =    0.0179             !
 ! D46   D(11,5,13,14)         -66.1117         D2E/DX2 =    0.0155             !
 ! D47   D(11,5,13,15)         174.6728         D2E/DX2 =    0.0156             !
 ! D48   D(11,5,13,16)          52.9995         D2E/DX2 =    0.0163             !
 ! D49   D(12,5,13,14)          56.2339         D2E/DX2 =    0.0157             !
 ! D50   D(12,5,13,15)         -62.9816         D2E/DX2 =    0.0166             !
 ! D51   D(12,5,13,16)         175.3451         D2E/DX2 =    0.0158             !
 ! D52   D(4,17,21,23)        -169.9753         D2E/DX2 =    0.029              !
 ! D53   D(4,17,21,24)          56.2059         D2E/DX2 =    0.0273             !
 ! D54   D(20,17,21,23)         68.2441         D2E/DX2 =    0.0302             !
 ! D55   D(20,17,21,24)        -65.5748         D2E/DX2 =    0.0248             !
 ! D56   D(22,17,21,23)        -48.3082         D2E/DX2 =    0.0252             !
 ! D57   D(22,17,21,24)        177.873          D2E/DX2 =    0.0291             !
 ! D58   D(17,21,23,28)       -158.1882         D2E/DX2 =    0.0188             !
 ! D59   D(17,21,23,29)         85.7361         D2E/DX2 =    0.0253             !
 ! D60   D(17,21,23,30)        -39.3281         D2E/DX2 =    0.0258             !
 ! D61   D(24,21,23,28)        -24.8345         D2E/DX2 =    0.0166             !
 ! D62   D(24,21,23,29)       -140.9102         D2E/DX2 =    0.0232             !
 ! D63   D(24,21,23,30)         94.0256         D2E/DX2 =    0.0272             !
 ! D64   D(17,21,24,25)       -166.5093         D2E/DX2 =    0.0307             !
 ! D65   D(17,21,24,26)         67.0535         D2E/DX2 =    0.0253             !
 ! D66   D(17,21,24,27)        -51.61           D2E/DX2 =    0.0209             !
 ! D67   D(23,21,24,25)         61.1026         D2E/DX2 =    0.0271             !
 ! D68   D(23,21,24,26)        -65.3346         D2E/DX2 =    0.0237             !
 ! D69   D(23,21,24,27)        176.0019         D2E/DX2 =    0.02               !
 ! D70   D(21,23,29,37)       -177.9408         D2E/DX2 =    0.0203             !
 ! D71   D(21,23,29,38)         61.928          D2E/DX2 =    0.0208             !
 ! D72   D(21,23,29,39)        -58.5005         D2E/DX2 =    0.02               !
 ! D73   D(28,23,29,37)         66.4201         D2E/DX2 =    0.0133             !
 ! D74   D(28,23,29,38)        -53.7111         D2E/DX2 =    0.0136             !
 ! D75   D(28,23,29,39)       -174.1396         D2E/DX2 =    0.0131             !
 ! D76   D(30,23,29,37)        -49.6485         D2E/DX2 =    0.018              !
 ! D77   D(30,23,29,38)       -169.7797         D2E/DX2 =    0.0191             !
 ! D78   D(30,23,29,39)         69.7919         D2E/DX2 =    0.0182             !
 ! D79   D(21,23,30,40)       -169.8661         D2E/DX2 =    0.0179             !
 ! D80   D(21,23,30,41)         71.544          D2E/DX2 =    0.0184             !
 ! D81   D(21,23,30,42)        -50.0415         D2E/DX2 =    0.0172             !
 ! D82   D(28,23,30,40)        -51.3103         D2E/DX2 =    0.0132             !
 ! D83   D(28,23,30,41)       -169.9002         D2E/DX2 =    0.0137             !
 ! D84   D(28,23,30,42)         68.5143         D2E/DX2 =    0.0132             !
 ! D85   D(29,23,30,40)         64.85           D2E/DX2 =    0.0168             !
 ! D86   D(29,23,30,41)        -53.74           D2E/DX2 =    0.0174             !
 ! D87   D(29,23,30,42)       -175.3254         D2E/DX2 =    0.0173             !
 ! D88   D(21,24,25,31)         41.8606         D2E/DX2 =    0.0178             !
 ! D89   D(21,24,25,32)        -79.8016         D2E/DX2 =    0.0195             !
 ! D90   D(21,24,25,33)        161.3039         D2E/DX2 =    0.019              !
 ! D91   D(26,24,25,31)        171.1907         D2E/DX2 =    0.0175             !
 ! D92   D(26,24,25,32)         49.5285         D2E/DX2 =    0.0179             !
 ! D93   D(26,24,25,33)        -69.366          D2E/DX2 =    0.0169             !
 ! D94   D(27,24,25,31)        -72.547          D2E/DX2 =    0.0134             !
 ! D95   D(27,24,25,32)        165.7908         D2E/DX2 =    0.0139             !
 ! D96   D(27,24,25,33)         46.8964         D2E/DX2 =    0.0133             !
 ! D97   D(21,24,26,34)        -52.7555         D2E/DX2 =    0.0187             !
 ! D98   D(21,24,26,35)       -172.5268         D2E/DX2 =    0.0192             !
 ! D99   D(21,24,26,36)         68.5238         D2E/DX2 =    0.0193             !
 ! D100  D(25,24,26,34)       -179.9985         D2E/DX2 =    0.018              !
 ! D101  D(25,24,26,35)         60.2302         D2E/DX2 =    0.0175             !
 ! D102  D(25,24,26,36)        -58.7193         D2E/DX2 =    0.0184             !
 ! D103  D(27,24,26,34)         64.6538         D2E/DX2 =    0.0133             !
 ! D104  D(27,24,26,35)        -55.1175         D2E/DX2 =    0.0135             !
 ! D105  D(27,24,26,36)       -174.0669         D2E/DX2 =    0.014              !
 --------------------------------------------------------------------------------
 Trust Radius=3.00D-01 FncErr=1.00D-07 GrdErr=1.00D-06
 Number of steps in this run=    243 maximum allowed number of steps=    270.
 GradGradGradGradGradGradGradGradGradGradGradGradGradGradGradGradGradGrad

 Leave Link  103 at Tue Nov  5 11:43:52 2019, MaxMem=  6815744000 cpu:         2.4
 (Enter /apps/gaussian/g09_d01/g09/l202.exe)
                          Input orientation:                          
 ---------------------------------------------------------------------
 Center     Atomic      Atomic             Coordinates (Angstroms)
 Number     Number       Type             X           Y           Z
 ---------------------------------------------------------------------
      1         15           0        2.225889   -0.484944    0.014330
      2         16           0        1.067879    0.325554    1.810430
      3          8           0        1.475360    0.396387   -1.121469
      4          6           0       -0.448222   -0.669923    2.060745
      5          6           0        0.853777    1.696012   -0.994711
      6          8           0        1.693897   -1.953190    0.476762
      7          6           0        3.753134    0.232339    0.688155
      8          1           0        4.298979   -0.586855    1.162485
      9          1           0        3.567981    1.013471    1.421423
     10          1           0        4.347275    0.616104   -0.142292
     11          1           0        0.072533    1.639207   -0.241847
     12          1           0        0.392390    1.850697   -1.971312
     13          6           0        1.869853    2.777193   -0.701140
     14          1           0        1.382619    3.752369   -0.774262
     15          1           0        2.690160    2.747505   -1.422014
     16          1           0        2.278645    2.679210    0.306947
     17          6           0       -1.752857   -0.101545    1.513808
     18          1           0       -0.259263   -1.683458    1.714116
     19          1           0       -0.559272   -0.726687    3.145827
     20          1           0       -2.554332   -0.726522    1.943362
     21          7           0       -1.856043    0.000610    0.063539
     22          1           0       -1.890121    0.900938    1.930191
     23          6           0       -3.043140    0.773179   -0.360712
     24          6           0       -1.642951   -1.268568   -0.650984
     25          6           0       -1.434684   -1.042133   -2.149960
     26          6           0       -2.720106   -2.337514   -0.427127
     27          1           0       -0.699141   -1.663159   -0.267698
     28          1           0       -3.258143    0.474588   -1.388502
     29          6           0       -2.720519    2.268098   -0.380070
     30          6           0       -4.319781    0.527978    0.458265
     31          1           0       -0.788307   -0.180404   -2.329800
     32          1           0       -2.377973   -0.885523   -2.679191
     33          1           0       -0.960106   -1.923169   -2.589822
     34          1           0       -2.894934   -2.524901    0.635503
     35          1           0       -2.408770   -3.279613   -0.886960
     36          1           0       -3.666458   -2.038565   -0.887006
     37          1           0       -3.605920    2.846636   -0.658071
     38          1           0       -1.927956    2.485290   -1.098863
     39          1           0       -2.393927    2.611525    0.606429
     40          1           0       -5.165912    1.002423   -0.045332
     41          1           0       -4.243088    0.966358    1.457143
     42          1           0       -4.543646   -0.534564    0.567885
     43          8           0        3.068544   -1.308712   -1.245689
     44          1           0        3.395169   -0.696498   -1.914610
     45          1           0        1.987858   -2.633335   -0.147888
 ---------------------------------------------------------------------
                    Distance matrix (angstroms):
                    1          2          3          4          5
     1  P    0.000000
     2  S    2.285579   0.000000
     3  O    1.621751   2.960927   0.000000
     4  C    3.372373   1.830900   3.868290   0.000000
     5  C    2.767206   3.129347   1.446188   4.077826   0.000000
     6  O    1.628682   2.713530   2.850020   2.957102   4.023396
     7  C    1.816869   2.911836   2.913744   4.511039   3.657957
     8  H    2.371993   3.419405   3.762450   4.832152   4.662016
     9  H    2.454867   2.622035   3.350546   4.401413   3.697360
    10  H    2.395229   3.827791   3.042197   5.431762   3.754644
    11  H    3.035554   2.632155   2.070329   3.302302   1.086450
    12  H    3.572074   4.133270   2.002518   4.828834   1.091125
    13  C    3.358601   3.600234   2.449600   4.988396   1.512464
    14  H    4.391789   4.303807   3.375170   5.562905   2.134684
    15  H    3.567543   4.352739   2.663423   5.801540   2.158825
    16  H    3.178094   3.044029   2.810146   4.661363   2.165927
    17  C    4.269174   2.868266   4.196904   1.524555   4.039607
    18  H    3.240630   2.409711   3.921123   1.087709   4.471848
    19  H    4.197836   2.353320   4.859098   1.092225   5.001023
    20  H    5.160430   3.774248   5.185801   2.110138   5.110397
    21  N    4.111003   3.421481   3.557966   2.533852   3.367107
    22  H    4.746865   3.015820   4.570958   2.136287   4.088542
    23  C    5.430119   4.670621   4.597561   3.831397   4.054571
    24  C    4.003078   3.993542   3.566132   3.023116   3.891084
    25  C    4.288869   4.880376   3.405215   4.340701   3.750879
    26  C    5.299977   5.142705   5.055517   3.759231   5.418867
    27  H    3.165996   3.375789   3.114339   2.543841   3.771490
    28  H    5.741362   5.382363   4.741674   4.593786   4.307532
    29  C    5.674657   4.787872   4.653856   4.444421   3.671602
    30  C    6.638440   5.558435   6.008039   4.357968   5.499196
    31  H    3.830544   4.565405   2.630008   4.430821   2.828399
    32  H    5.348931   5.787684   4.349479   5.122247   4.466095
    33  H    4.358974   5.341506   3.669863   4.843596   4.351209
    34  H    5.547081   5.020899   5.542593   3.385064   5.875929
    35  H    5.486579   5.688604   5.352983   4.398090   5.950855
    36  H    6.160024   5.939626   5.694054   4.573780   5.864400
    37  H    6.749929   5.856086   5.660200   5.452449   4.618025
    38  H    5.226463   4.701433   3.993318   4.704053   2.893414
    39  H    5.592978   4.319651   4.781616   4.082733   3.734889
    40  H    7.540195   6.539278   6.755135   5.430369   6.133437
    41  H    6.784957   5.361139   6.298790   4.176453   5.702808
    42  H    6.792310   5.811448   6.320523   4.361129   6.045606
    43  O    1.725198   4.001668   2.336884   4.869107   3.741196
    44  H    2.265564   4.509633   2.347155   5.529540   3.609570
    45  H    2.167615   3.665569   3.223310   3.829822   4.554833
                    6          7          8          9         10
     6  O    0.000000
     7  C    3.010262   0.000000
     8  H    3.020519   1.092710   0.000000
     9  H    3.633958   1.087258   1.778328   0.000000
    10  H    3.744986   1.090836   1.775355   1.791760   0.000000
    11  H    4.006313   4.048581   4.978991   3.921247   4.396598
    12  H    4.707074   4.581096   5.569899   4.721862   4.528868
    13  C    4.878006   3.457335   4.548689   3.240313   3.334702
    14  H    5.849390   4.488721   5.575394   4.135022   4.361735
    15  H    5.166665   3.450911   4.515074   3.444210   2.987740
    16  H    4.672247   2.882119   3.934574   2.383093   2.955918
    17  C    4.047736   5.577555   6.081421   5.437198   6.361549
    18  H    2.327796   4.563135   4.720636   4.691150   5.473064
    19  H    3.702025   5.055366   5.249362   4.799576   6.057146
    20  H    4.658657   6.502237   6.899069   6.386135   7.333811
    21  N    4.073102   5.648602   6.279896   5.682409   6.237175
    22  H    4.806630   5.816872   6.411541   5.482918   6.578862
    23  C    5.529374   6.897969   7.620796   6.851327   7.395311
    24  C    3.588186   5.758797   6.249795   6.054452   6.300284
    25  C    4.185417   6.049184   6.637353   6.481276   6.341256
    26  C    4.521962   7.053426   7.406701   7.361132   7.665042
    27  H    2.522890   4.932476   5.308960   5.312797   5.538690
    28  H    5.822029   7.316364   8.046383   7.401489   7.708142
    29  C    6.167698   6.869759   7.733277   6.660683   7.262185
    30  C    6.505449   8.081597   8.719049   7.961167   8.688286
    31  H    4.144985   5.468372   6.183990   5.871479   5.638601
    32  H    5.261186   7.083721   7.709044   7.468305   7.343004
    33  H    4.055684   6.132371   6.597235   6.724397   6.372331
    34  H    4.627032   7.197357   7.469011   7.409927   7.932243
    35  H    4.522279   7.265249   7.512993   7.712377   7.834238
    36  H    5.531777   7.917605   8.352009   8.184185   8.474774
    37  H    7.239768   7.924806   8.808559   7.690881   8.276147
    38  H    5.941424   6.367417   7.302499   6.222814   6.617205
    39  H    6.128927   6.591931   7.438671   6.225941   7.070084
    40  H    7.487671   8.982228   9.673096   8.856206   9.521522
    41  H    6.688251   8.066579   8.687129   7.811293   8.745011
    42  H    6.397480   8.333016   8.862748   8.302014   8.993157
    43  O    2.296049   2.565785   2.798991   3.571479   2.560773
    44  H    3.192532   2.786622   3.208957   3.752729   2.402195
    45  H    0.969122   3.468033   3.353571   4.273022   4.015686
                   11         12         13         14         15
    11  H    0.000000
    12  H    1.771464   0.000000
    13  C    2.176309   2.157459   0.000000
    14  H    2.542685   2.455573   1.092572   0.000000
    15  H    3.077839   2.527002   1.092449   1.771722   0.000000
    16  H    2.499943   3.071621   1.092223   1.767357   1.778572
    17  C    3.073206   4.534247   5.130025   5.469838   6.039581
    18  H    3.869881   5.147551   5.501273   6.199679   6.178012
    19  H    4.180068   5.808070   5.742558   6.260989   6.594997
    20  H    4.155988   5.536236   6.232402   6.553284   7.134376
    21  N    2.549052   3.552308   4.709188   5.026583   5.515456
    22  H    3.019073   4.618834   4.957988   5.114250   5.968757
    23  C    3.235978   3.944357   5.316904   5.351069   6.155896
    24  C    3.400799   3.951670   5.358217   5.863368   5.958119
    25  C    3.619694   3.426162   5.254170   5.728612   5.648504
    26  C    4.862866   5.441806   6.877720   7.351158   7.491207
    27  H    3.391426   4.054741   5.148236   5.823940   5.681000
    28  H    3.710061   3.944583   5.663108   5.714701   6.367855
    29  C    2.866312   3.520863   4.629663   4.381117   5.530906
    30  C    4.584475   5.464155   6.686910   6.665823   7.589534
    31  H    2.900272   2.376538   4.297177   4.753875   4.636428
    32  H    4.280173   3.957639   5.947453   6.267444   6.361239
    33  H    4.389744   4.056337   5.802516   6.402839   6.041805
    34  H    5.188005   6.062000   7.252725   7.725867   7.951410
    35  H    5.546875   5.944948   7.417954   7.989750   7.912744
    36  H    5.284154   5.725061   7.340082   7.683801   7.974916
    37  H    3.893859   4.324694   5.476383   5.071427   6.343032
    38  H    2.335013   2.558883   3.829718   3.559601   4.636828
    39  H    2.783594   3.871327   4.462847   4.179728   5.475492
    40  H    5.280665   5.943374   7.285732   7.139804   8.164462
    41  H    4.686563   5.833011   6.730925   6.662552   7.715695
    42  H    5.166242   6.041643   7.328788   7.436381   8.188994
    43  O    4.321343   4.203593   4.292786   5.355290   4.077642
    44  H    4.392444   3.938033   3.983168   5.014297   3.549767
    45  H    4.683152   5.096758   5.440021   6.444834   5.574053
                   16         17         18         19         20
    16  H    0.000000
    17  C    5.044019   0.000000
    18  H    5.239653   2.184810   0.000000
    19  H    5.264327   2.116349   1.747917   0.000000
    20  H    6.134699   1.103393   2.497123   2.329418   0.000000
    21  N    4.932524   1.457520   2.847840   3.422145   2.133088
    22  H    4.814123   1.094161   3.063575   2.428599   1.757833
    23  C    5.692111   2.437991   4.253228   4.551376   2.792275
    24  C    5.646371   2.461777   2.771358   3.985445   2.802688
    25  C    5.802896   3.795937   4.089498   5.376915   4.255410
    26  C    7.119964   3.114860   3.326929   4.475485   2.870887
    27  H    5.296564   2.592820   2.030145   3.542414   3.034437
    28  H    6.196041   3.319822   4.824591   5.411757   3.611002
    29  C    5.062869   3.184077   5.104722   5.106042   3.793903
    30  C    6.941897   2.845974   4.791181   4.789427   2.626042
    31  H    4.953385   3.963571   4.346528   5.507574   4.655857
    32  H    6.580914   4.311221   4.942345   6.104403   4.628648
    33  H    6.329508   4.559226   4.367209   5.872810   4.952098
    34  H    7.345518   2.819293   2.969544   3.871772   2.249593
    35  H    7.674949   4.036585   3.732785   5.118735   3.814470
    36  H    7.682914   3.630127   4.301269   5.257316   3.311988
    37  H    5.965518   4.103982   6.111394   6.043206   4.543209
    38  H    4.439527   3.680819   5.298665   5.496134   4.468023
    39  H    4.682649   2.931733   4.922463   4.578008   3.599400
    40  H    7.639185   3.911343   5.863857   5.864679   3.710055
    41  H    6.840308   2.710144   4.791495   4.391874   2.440113
    42  H    7.545865   2.978385   4.581456   4.749519   2.426140
    43  O    4.351797   5.684891   4.469360   5.725837   6.490434
    44  H    4.192535   6.213710   5.243721   6.422346   7.090939
    45  H    5.339903   4.812914   3.069019   4.579491   5.351706
                   21         22         23         24         25
    21  N    0.000000
    22  H    2.072714   0.000000
    23  C    1.478531   2.567881   0.000000
    24  C    1.471992   3.380874   2.492692   0.000000
    25  C    2.482827   4.542090   3.013950   1.530221   0.000000
    26  C    2.540507   4.090647   3.128126   1.533955   2.509676
    27  H    2.053354   3.581025   3.382118   1.092423   2.114144
    28  H    2.073394   3.614828   1.091666   2.488246   2.491037
    29  C    2.466903   2.809980   1.529458   3.707094   3.967810
    30  C    2.550281   2.865120   1.536444   3.409315   4.194267
    31  H    2.626955   4.531094   3.141799   2.175532   1.092118
    32  H    2.929199   4.967478   2.927299   2.191028   1.092889
    33  H    3.397638   5.410270   4.071640   2.157284   1.093127
    34  H    2.790097   3.797662   3.448440   2.191092   3.477030
    35  H    3.459598   5.067775   4.135757   2.164825   2.747786
    36  H    2.887797   4.442145   2.927697   2.177884   2.751135
    37  H    3.417990   3.664533   2.168955   4.559407   4.697076
    38  H    2.744083   3.418592   2.172517   3.791210   3.713602
    39  H    2.720465   2.220873   2.176318   4.147309   4.676222
    40  H    3.459873   3.826722   2.158281   4.235028   4.746760
    41  H    2.927933   2.400939   2.186730   4.024898   4.993232
    42  H    2.786393   3.310247   2.196361   3.230856   4.160523
    43  O    5.261174   6.289445   6.516912   4.749050   4.600851
    44  H    5.654578   6.728194   6.784274   5.225579   4.847921
    45  H    4.664541   5.643423   6.079521   3.911326   4.272471
                   26         27         28         29         30
    26  C    0.000000
    27  H    2.136462   0.000000
    28  H    3.020206   3.517763   0.000000
    29  C    4.605852   4.421919   2.126653   0.000000
    30  C    3.399106   4.293849   2.130839   2.507681   0.000000
    31  H    3.464842   2.541412   2.723076   3.678322   4.554824
    32  H    2.701319   3.039488   2.071347   3.917731   3.951232
    33  H    2.818959   2.351163   3.531767   5.054579   5.156197
    34  H    1.093097   2.525842   3.636682   4.902514   3.373673
    35  H    1.093585   2.432949   3.881625   5.579536   4.467588
    36  H    1.093820   3.054413   2.595026   4.438370   2.970476
    37  H    5.264353   5.379591   2.506210   1.093584   2.670577
    38  H    4.933373   4.405729   2.428211   1.091785   3.460716
    39  H    5.066322   4.680739   3.048462   1.094433   2.841134
    40  H    4.157272   5.206420   2.392133   2.773793   1.092998
    41  H    4.097013   4.738037   3.051172   2.718104   1.093534
    42  H    2.750632   4.092938   2.549188   3.475244   1.091387
    43  O    5.936071   3.908651   6.574764   6.859746   7.801554
    44  H    6.504008   4.517757   6.776045   6.967445   8.163966
    45  H    4.725506   2.859294   6.222446   6.800497   7.081500
                   31         32         33         34         35
    31  H    0.000000
    32  H    1.773782   0.000000
    33  H    1.770411   1.759273   0.000000
    34  H    4.327536   3.733899   3.808984   0.000000
    35  H    3.783224   2.990770   2.615015   1.767439   0.000000
    36  H    3.717279   2.490306   3.199568   1.774769   1.766913
    37  H    4.460559   4.418347   5.786452   5.570659   6.246318
    38  H    3.149592   3.749978   4.753336   5.389350   5.788799
    39  H    4.358248   4.798427   5.730211   5.160884   6.077495
    40  H    5.077529   4.274828   5.720342   4.250046   5.161977
    41  H    5.252762   4.900752   5.958629   3.831645   5.185346
    42  H    4.756530   3.918777   4.974042   2.585394   3.769558
    43  O    4.162172   5.647881   4.291185   6.370327   5.832161
    44  H    4.235589   5.826619   4.574829   7.029334   6.435391
    45  H    4.299384   5.340676   3.893311   4.946425   4.504913
                   36         37         38         39         40
    36  H    0.000000
    37  H    4.890936   0.000000
    38  H    4.851035   1.772127   0.000000
    39  H    5.047080   1.767248   1.772311   0.000000
    40  H    3.493477   2.492016   3.713918   3.270765   0.000000
    41  H    3.854491   2.900957   3.768310   2.617190   1.763614
    42  H    2.268961   3.716828   4.328904   3.810598   1.767931
    43  O    6.783921   7.884204   6.275430   6.974037   8.636461
    44  H    7.261108   7.946568   6.254988   7.128274   8.925954
    45  H    5.733353   7.847338   6.514467   6.875871   8.025315
                   41         42         43         44         45
    41  H    0.000000
    42  H    1.770277   0.000000
    43  O    8.120419   7.863446   0.000000
    44  H    8.513330   8.319482   0.963818   0.000000
    45  H    7.372829   6.897660   2.031668   2.975427   0.000000
 Stoichiometry    C11H28NO3PS
 Framework group  C1[X(C11H28NO3PS)]
 Deg. of freedom   129
 Full point group                 C1      NOp   1
 RotChk:  IX=0 Diff= 1.01D-15
 Largest Abelian subgroup         C1      NOp   1
 Largest concise Abelian subgroup C1      NOp   1
                         Standard orientation:                         
 ---------------------------------------------------------------------
 Center     Atomic      Atomic             Coordinates (Angstroms)
 Number     Number       Type             X           Y           Z
 ---------------------------------------------------------------------
      1         15           0        2.244186   -0.440463   -0.057575
      2         16           0        1.097308    0.279976    1.783486
      3          8           0        1.469796    0.477681   -1.147257
      4          6           0       -0.403504   -0.744202    2.008915
      5          6           0        0.833893    1.762927   -0.959557
      6          8           0        1.735586   -1.933282    0.349146
      7          6           0        3.770279    0.267543    0.628559
      8          1           0        4.331569   -0.563650    1.062249
      9          1           0        3.584128    1.015134    1.395753
     10          1           0        4.349996    0.692978   -0.191719
     11          1           0        0.062202    1.664991   -0.201087
     12          1           0        0.359333    1.952170   -1.923680
     13          6           0        1.840024    2.843792   -0.632482
     14          1           0        1.340092    3.814901   -0.659488
     15          1           0        2.652200    2.854483   -1.363030
     16          1           0        2.261669    2.709222    0.366046
     17          6           0       -1.721255   -0.170204    1.500657
     18          1           0       -0.206214   -1.739985    1.618272
     19          1           0       -0.501235   -0.847387    3.091855
     20          1           0       -2.509987   -0.822605    1.912665
     21          7           0       -1.842527   -0.009223    0.057140
     22          1           0       -1.865911    0.812298    1.959953
     23          6           0       -3.043826    0.765170   -0.321342
     24          6           0       -1.622259   -1.244823   -0.711975
     25          6           0       -1.434207   -0.953703   -2.202432
     26          6           0       -2.683597   -2.335729   -0.520914
     27          1           0       -0.669308   -1.642980   -0.355968
     28          1           0       -3.267093    0.506818   -1.358232
     29          6           0       -2.739744    2.263577   -0.281964
     30          6           0       -4.307773    0.469982    0.500828
     31          1           0       -0.800543   -0.077113   -2.353369
     32          1           0       -2.385426   -0.787233   -2.714171
     33          1           0       -0.954042   -1.809615   -2.683869
     34          1           0       -2.843762   -2.569292    0.534859
     35          1           0       -2.366136   -3.253891   -1.023036
     36          1           0       -3.638812   -2.029975   -0.957401
     37          1           0       -3.635319    2.841877   -0.525767
     38          1           0       -1.958300    2.520478   -0.999837
     39          1           0       -2.405931    2.569855    0.714303
     40          1           0       -5.165433    0.954155    0.026865
     41          1           0       -4.224840    0.867437    1.516194
     42          1           0       -4.517347   -0.598951    0.568552
     43          8           0        3.082146   -1.200427   -1.360106
     44          1           0        3.393470   -0.556864   -2.006518
     45          1           0        2.030558   -2.583111   -0.306531
 ---------------------------------------------------------------------
 Rotational constants (GHZ):      0.5672600      0.2646560      0.2489932
 Leave Link  202 at Tue Nov  5 11:43:52 2019, MaxMem=  6815744000 cpu:         0.1
 (Enter /apps/gaussian/g09_d01/g09/l301.exe)
 Standard basis: 6-311++G(d,p) (5D, 7F)
 Ernie: Thresh=  0.10000D-02 Tol=  0.10000D-05 Strict=F.
 There are   603 symmetry adapted cartesian basis functions of A   symmetry.
 There are   586 symmetry adapted basis functions of A   symmetry.
   586 basis functions,   892 primitive gaussians,   603 cartesian basis functions
    78 alpha electrons       78 beta electrons
       nuclear repulsion energy      1831.0057110100 Hartrees.
 IExCor= 4336 DFT=T Ex+Corr=M062X ExCW=0 ScaHFX=  0.540000
 ScaDFX=  1.000000  1.000000  1.000000  1.000000 ScalE2=  1.000000  1.000000
 IRadAn=      5 IRanWt=     -1 IRanGd=            0 ICorTp=0 IEmpDi=  4
 NAtoms=   45 NActive=   45 NUniq=   45 SFac= 1.00D+00 NAtFMM=   60 NAOKFM=F Big=F
 Integral buffers will be    131072 words long.
 Raffenetti 2 integral format.
 Two-electron integral symmetry is turned on.
 ------------------------------------------------------------------------------
 Polarizable Continuum Model (PCM)
 =================================
 Model                : PCM (using non-symmetric T matrix).
 Atomic radii         : SMD-Coulomb.
 Polarization charges : Total charges.
 Charge compensation  : None.
 Solution method      : On-the-fly selection.
 Cavity type          : VdW (van der Waals Surface) (Alpha=1.000).
 Cavity algorithm     : GePol (No added spheres)
                        Default sphere list used, NSphG=   45.
                        Lebedev-Laikov grids with approx.  5.0 points / Ang**2.
                        Smoothing algorithm: Karplus/York (Gamma=1.0000).
                        Polarization charges: spherical gaussians, with
                                              point-specific exponents (IZeta= 3).
                        Self-potential: point-specific (ISelfS= 7).
                        Self-field    : sphere-specific E.n sum rule (ISelfD= 2).
 1st derivatives      : Analytical E(r).r(x)/FMM algorithm (CHGder, D1EAlg=3).
                        Cavity 1st derivative terms included.
 Solvent              : Water, Eps=  78.355300 Eps(inf)=   1.777849
 ------------------------------------------------------------------------------
 GePol: Number of generator spheres                  =      45
 GePol: Total number of spheres                      =      45
 GePol: Number of exposed spheres                    =      45 (100.00%)
 GePol: Number of points                             =    2845
 GePol: Average weight of points                     =       0.11
 GePol: Minimum weight of points                     =   0.29D-08
 GePol: Maximum weight of points                     =    0.21991
 GePol: Number of points with low weight             =     194
 GePol: Fraction of low-weight points (<1% of avg)   =       6.82%
 GePol: Cavity surface area                          =    319.810 Ang**2
 GePol: Cavity volume                                =    309.838 Ang**3
 ------------------------------------------------------------------------------
 Atomic radii for non-electrostatic terms: SMD-CDS.
 ------------------------------------------------------------------------------
 PCM non-electrostatic energy =         0.0136181775 Hartrees.
 Nuclear repulsion after PCM non-electrostatic terms =     1831.0193291876 Hartrees.
 Leave Link  301 at Tue Nov  5 11:43:52 2019, MaxMem=  6815744000 cpu:         1.9
 (Enter /apps/gaussian/g09_d01/g09/l302.exe)
 NPDir=0 NMtPBC=     1 NCelOv=     1 NCel=       1 NClECP=     1 NCelD=      1
         NCelK=      1 NCelE2=     1 NClLst=     1 CellRange=     0.0.
 One-electron integrals computed using PRISM.
 NBasis=   586 RedAO= T EigKep=  4.66D-06  NBF=   586
 NBsUse=   586 1.00D-06 EigRej= -1.00D+00 NBFU=   586
 Precomputing XC quadrature grid using
 IXCGrd= 4 IRadAn=           5 IRanWt=          -1 IRanGd=           0 AccXCQ= 0.00D+00.
 Generated NRdTot=       0 NPtTot=           0 NUsed=           0 NTot=          32
 NSgBfM=   601   601   602   602   602 MxSgAt=    45 MxSgA2=    45.
 Leave Link  302 at Tue Nov  5 11:43:54 2019, MaxMem=  6815744000 cpu:        29.2
 (Enter /apps/gaussian/g09_d01/g09/l303.exe)
 DipDrv:  MaxL=1.
 Leave Link  303 at Tue Nov  5 11:43:54 2019, MaxMem=  6815744000 cpu:         2.6
 (Enter /apps/gaussian/g09_d01/g09/l401.exe)
 Initial guess from the checkpoint file:  "Int1c_sp.chk"
 B after Tr=     0.000000    0.000000    0.000000
         Rot=    1.000000    0.000000    0.000000    0.000000 Ang=   0.00 deg.
 Guess basis will be translated and rotated to current coordinates.
 JPrj=2 DoOrth=T DoCkMO=T.
 Leave Link  401 at Tue Nov  5 11:43:56 2019, MaxMem=  6815744000 cpu:        31.0
 (Enter /apps/gaussian/g09_d01/g09/l502.exe)
 Closed shell SCF:
 Using DIIS extrapolation, IDIIS=  1040.
 Integral symmetry usage will be decided dynamically.
 IVT=     1123575 IEndB=     1123575 NGot=  6815744000 MDV=  6815001278
 LenX=  6815001278 LenY=  6814637066
 Requested convergence on RMS density matrix=1.00D-09 within 128 cycles.
 Requested convergence on MAX density matrix=1.00D-07.
 Requested convergence on             energy=1.00D-07.
 No special actions if energy rises.
 Fock matrices will be formed incrementally for  20 cycles.

 Cycle   1  Pass 1  IDiag  1:
 FoFJK:  IHMeth= 1 ICntrl=       0 DoSepK=F KAlg= 0 I1Cent=   0 FoldK=F
 IRaf= 880000000 NMat=   1 IRICut=       1 DoRegI=T DoRafI=F ISym2E= 0.
 FoFCou: FMM=F IPFlag=           0 FMFlag=      100000 FMFlg1=           0
         NFxFlg=           0 DoJE=F BraDBF=F KetDBF=F FulRan=T
         wScrn=  0.000000 ICntrl=       0 IOpCl=  0 I1Cent=           0 NGrid=           0
         NMat0=    1 NMatS0=      1 NMatT0=    0 NMatD0=    1 NMtDS0=    0 NMtDT0=    0
 Symmetry not used in FoFCou.
 Inv3:  Mode=1 IEnd=    24282075.
 Iteration    1 A*A^-1 deviation from unit magnitude is 8.22D-15 for   2831.
 Iteration    1 A*A^-1 deviation from orthogonality  is 3.85D-15 for   2076   1249.
 Iteration    1 A^-1*A deviation from unit magnitude is 7.99D-15 for   2831.
 Iteration    1 A^-1*A deviation from orthogonality  is 2.30D-10 for   2181   2168.
 Iteration    2 A*A^-1 deviation from unit magnitude is 3.00D-15 for    243.
 Iteration    2 A*A^-1 deviation from orthogonality  is 3.52D-15 for   1491    431.
 Iteration    2 A^-1*A deviation from unit magnitude is 1.11D-15 for    731.
 Iteration    2 A^-1*A deviation from orthogonality  is 8.85D-16 for   2844    697.
 E= -1455.91326468793    
 DIIS: error= 2.08D-10 at cycle   1 NSaved=   1.
 NSaved= 1 IEnMin= 1 EnMin= -1455.91326468793     IErMin= 1 ErrMin= 2.08D-10
 ErrMax= 2.08D-10  0.00D+00 EMaxC= 1.00D-01 BMatC= 5.32D-17 BMatP= 5.32D-17
 IDIUse=1 WtCom= 1.00D+00 WtEn= 0.00D+00
 Coeff-Com:  0.100D+01
 Coeff:      0.100D+01
 Gap=     0.255 Goal=   None    Shift=    0.000
 RMSDP=1.98D-10 MaxDP=2.36D-08              OVMax= 1.82D-09

 Error on total polarization charges =  0.06659
 SCF Done:  E(RM062X) =  -1455.91326469     A.U. after    1 cycles
            NFock=  1  Conv=0.20D-09     -V/T= 2.0027
 KE= 1.452004231714D+03 PE=-7.092569286293D+03 EE= 2.353632460703D+03
 SMD-CDS (non-electrostatic) energy       (kcal/mol) =       8.55
 (included in total energy above)
 Leave Link  502 at Tue Nov  5 11:45:11 2019, MaxMem=  6815744000 cpu:      1149.4
 (Enter /apps/gaussian/g09_d01/g09/l601.exe)
 Copying SCF densities to generalized density rwf, IOpCl= 0 IROHF=0.

 **********************************************************************

            Population analysis using the SCF density.

 **********************************************************************

 Orbital symmetries:
       Occupied  (A) (A) (A) (A) (A) (A) (A) (A) (A) (A) (A) (A)
                 (A) (A) (A) (A) (A) (A) (A) (A) (A) (A) (A) (A)
                 (A) (A) (A) (A) (A) (A) (A) (A) (A) (A) (A) (A)
                 (A) (A) (A) (A) (A) (A) (A) (A) (A) (A) (A) (A)
                 (A) (A) (A) (A) (A) (A) (A) (A) (A) (A) (A) (A)
                 (A) (A) (A) (A) (A) (A) (A) (A) (A) (A) (A) (A)
                 (A) (A) (A) (A) (A) (A)
       Virtual   (A) (A) (A) (A) (A) (A) (A) (A) (A) (A) (A) (A)
                 (A) (A) (A) (A) (A) (A) (A) (A) (A) (A) (A) (A)
                 (A) (A) (A) (A) (A) (A) (A) (A) (A) (A) (A) (A)
                 (A) (A) (A) (A) (A) (A) (A) (A) (A) (A) (A) (A)
                 (A) (A) (A) (A) (A) (A) (A) (A) (A) (A) (A) (A)
                 (A) (A) (A) (A) (A) (A) (A) (A) (A) (A) (A) (A)
                 (A) (A) (A) (A) (A) (A) (A) (A) (A) (A) (A) (A)
                 (A) (A) (A) (A) (A) (A) (A) (A) (A) (A) (A) (A)
                 (A) (A) (A) (A) (A) (A) (A) (A) (A) (A) (A) (A)
                 (A) (A) (A) (A) (A) (A) (A) (A) (A) (A) (A) (A)
                 (A) (A) (A) (A) (A) (A) (A) (A) (A) (A) (A) (A)
                 (A) (A) (A) (A) (A) (A) (A) (A) (A) (A) (A) (A)
                 (A) (A) (A) (A) (A) (A) (A) (A) (A) (A) (A) (A)
                 (A) (A) (A) (A) (A) (A) (A) (A) (A) (A) (A) (A)
                 (A) (A) (A) (A) (A) (A) (A) (A) (A) (A) (A) (A)
                 (A) (A) (A) (A) (A) (A) (A) (A) (A) (A) (A) (A)
                 (A) (A) (A) (A) (A) (A) (A) (A) (A) (A) (A) (A)
                 (A) (A) (A) (A) (A) (A) (A) (A) (A) (A) (A) (A)
                 (A) (A) (A) (A) (A) (A) (A) (A) (A) (A) (A) (A)
                 (A) (A) (A) (A) (A) (A) (A) (A) (A) (A) (A) (A)
                 (A) (A) (A) (A) (A) (A) (A) (A) (A) (A) (A) (A)
                 (A) (A) (A) (A) (A) (A) (A) (A) (A) (A) (A) (A)
                 (A) (A) (A) (A) (A) (A) (A) (A) (A) (A) (A) (A)
                 (A) (A) (A) (A) (A) (A) (A) (A) (A) (A) (A) (A)
                 (A) (A) (A) (A) (A) (A) (A) (A) (A) (A) (A) (A)
                 (A) (A) (A) (A) (A) (A) (A) (A) (A) (A) (A) (A)
                 (A) (A) (A) (A) (A) (A) (A) (A) (A) (A) (A) (A)
                 (A) (A) (A) (A) (A) (A) (A) (A) (A) (A) (A) (A)
                 (A) (A) (A) (A) (A) (A) (A) (A) (A) (A) (A) (A)
                 (A) (A) (A) (A) (A) (A) (A) (A) (A) (A) (A) (A)
                 (A) (A) (A) (A) (A) (A) (A) (A) (A) (A) (A) (A)
                 (A) (A) (A) (A) (A) (A) (A) (A) (A) (A) (A) (A)
                 (A) (A) (A) (A) (A) (A) (A) (A) (A) (A) (A) (A)
                 (A) (A) (A) (A) (A) (A) (A) (A) (A) (A) (A) (A)
                 (A) (A) (A) (A) (A) (A) (A) (A) (A) (A) (A) (A)
                 (A) (A) (A) (A) (A) (A) (A) (A) (A) (A) (A) (A)
                 (A) (A) (A) (A) (A) (A) (A) (A) (A) (A) (A) (A)
                 (A) (A) (A) (A) (A) (A) (A) (A) (A) (A) (A) (A)
                 (A) (A) (A) (A) (A) (A) (A) (A) (A) (A) (A) (A)
                 (A) (A) (A) (A) (A) (A) (A) (A) (A) (A) (A) (A)
                 (A) (A) (A) (A) (A) (A) (A) (A) (A) (A) (A) (A)
                 (A) (A) (A) (A) (A) (A) (A) (A) (A) (A) (A) (A)
                 (A) (A) (A) (A)
 The electronic state is 1-A.
 Alpha  occ. eigenvalues --  -89.85121 -78.17376 -19.64914 -19.64887 -19.61263
 Alpha  occ. eigenvalues --  -14.71892 -10.58122 -10.55296 -10.55180 -10.54724
 Alpha  occ. eigenvalues --  -10.54677 -10.53686 -10.51989 -10.51048 -10.50980
 Alpha  occ. eigenvalues --  -10.50970 -10.50964  -8.21783  -6.97795  -6.13904
 Alpha  occ. eigenvalues --   -6.13649  -6.13360  -5.09703  -5.09566  -5.09499
 Alpha  occ. eigenvalues --   -1.20141  -1.15742  -1.10473  -1.01943  -0.87611
 Alpha  occ. eigenvalues --   -0.87365  -0.85815  -0.83675  -0.81742  -0.77222
 Alpha  occ. eigenvalues --   -0.75997  -0.75208  -0.73396  -0.68927  -0.67563
 Alpha  occ. eigenvalues --   -0.65840  -0.62136  -0.59389  -0.58779  -0.55902
 Alpha  occ. eigenvalues --   -0.54970  -0.54701  -0.53990  -0.52099  -0.50341
 Alpha  occ. eigenvalues --   -0.49995  -0.49420  -0.48928  -0.47877  -0.47462
 Alpha  occ. eigenvalues --   -0.47134  -0.45947  -0.45843  -0.45187  -0.44493
 Alpha  occ. eigenvalues --   -0.43641  -0.43394  -0.43266  -0.42886  -0.41914
 Alpha  occ. eigenvalues --   -0.41716  -0.40432  -0.39934  -0.39003  -0.38641
 Alpha  occ. eigenvalues --   -0.38325  -0.37483  -0.36827  -0.36647  -0.35946
 Alpha  occ. eigenvalues --   -0.30446  -0.27051  -0.25641
 Alpha virt. eigenvalues --   -0.00141   0.00834   0.00934   0.01129   0.02334
 Alpha virt. eigenvalues --    0.02558   0.02682   0.02932   0.03186   0.04218
 Alpha virt. eigenvalues --    0.04459   0.04617   0.05133   0.05203   0.05244
 Alpha virt. eigenvalues --    0.05843   0.06367   0.06993   0.07123   0.07445
 Alpha virt. eigenvalues --    0.07558   0.07793   0.08491   0.08835   0.09154
 Alpha virt. eigenvalues --    0.09520   0.09796   0.10010   0.10157   0.10606
 Alpha virt. eigenvalues --    0.11017   0.11299   0.11447   0.11675   0.12170
 Alpha virt. eigenvalues --    0.12419   0.12866   0.13428   0.13492   0.13671
 Alpha virt. eigenvalues --    0.14165   0.14252   0.14473   0.14920   0.15171
 Alpha virt. eigenvalues --    0.15357   0.15531   0.15784   0.15991   0.16231
 Alpha virt. eigenvalues --    0.16359   0.16879   0.16990   0.17133   0.17294
 Alpha virt. eigenvalues --    0.17460   0.17603   0.17856   0.18065   0.18418
 Alpha virt. eigenvalues --    0.18533   0.18735   0.18844   0.19073   0.19253
 Alpha virt. eigenvalues --    0.19399   0.19985   0.20083   0.20225   0.20839
 Alpha virt. eigenvalues --    0.21146   0.21418   0.21499   0.21838   0.22326
 Alpha virt. eigenvalues --    0.22613   0.23203   0.23329   0.23545   0.23977
 Alpha virt. eigenvalues --    0.24157   0.24515   0.24632   0.24820   0.25330
 Alpha virt. eigenvalues --    0.25686   0.25896   0.26344   0.26671   0.27152
 Alpha virt. eigenvalues --    0.27697   0.27924   0.28551   0.28859   0.28980
 Alpha virt. eigenvalues --    0.29529   0.29580   0.30054   0.30658   0.30798
 Alpha virt. eigenvalues --    0.31406   0.31659   0.31892   0.32137   0.32264
 Alpha virt. eigenvalues --    0.32752   0.33096   0.33358   0.33587   0.34255
 Alpha virt. eigenvalues --    0.34671   0.34768   0.35189   0.35823   0.36318
 Alpha virt. eigenvalues --    0.36645   0.37310   0.37539   0.37730   0.37831
 Alpha virt. eigenvalues --    0.38600   0.39031   0.39332   0.39535   0.39940
 Alpha virt. eigenvalues --    0.40202   0.40362   0.41291   0.41503   0.42307
 Alpha virt. eigenvalues --    0.42641   0.42887   0.43058   0.44022   0.45015
 Alpha virt. eigenvalues --    0.45712   0.45824   0.46241   0.46344   0.47884
 Alpha virt. eigenvalues --    0.48883   0.49411   0.51296   0.51960   0.52070
 Alpha virt. eigenvalues --    0.52708   0.53722   0.54015   0.54503   0.55027
 Alpha virt. eigenvalues --    0.56095   0.58220   0.58921   0.59933   0.60946
 Alpha virt. eigenvalues --    0.61360   0.61964   0.62167   0.63076   0.63276
 Alpha virt. eigenvalues --    0.63964   0.64386   0.65269   0.65882   0.66619
 Alpha virt. eigenvalues --    0.67349   0.67938   0.68472   0.68749   0.69333
 Alpha virt. eigenvalues --    0.69853   0.70300   0.71045   0.71719   0.72713
 Alpha virt. eigenvalues --    0.73024   0.73659   0.74068   0.74782   0.75049
 Alpha virt. eigenvalues --    0.75881   0.76345   0.76521   0.77525   0.78080
 Alpha virt. eigenvalues --    0.78712   0.79780   0.80399   0.80775   0.81043
 Alpha virt. eigenvalues --    0.81601   0.81813   0.82453   0.82500   0.83935
 Alpha virt. eigenvalues --    0.84594   0.84733   0.85011   0.85584   0.86330
 Alpha virt. eigenvalues --    0.86716   0.87136   0.87569   0.88377   0.88607
 Alpha virt. eigenvalues --    0.89985   0.91176   0.91668   0.92522   0.93569
 Alpha virt. eigenvalues --    0.94934   0.95823   0.96094   0.98132   0.99045
 Alpha virt. eigenvalues --    1.00121   1.00439   1.01767   1.02905   1.03586
 Alpha virt. eigenvalues --    1.03811   1.06179   1.07510   1.08077   1.08144
 Alpha virt. eigenvalues --    1.09634   1.10456   1.12705   1.13472   1.13807
 Alpha virt. eigenvalues --    1.16201   1.17509   1.18435   1.19985   1.21054
 Alpha virt. eigenvalues --    1.21261   1.22473   1.23862   1.24775   1.25112
 Alpha virt. eigenvalues --    1.27215   1.28068   1.29672   1.31497   1.32635
 Alpha virt. eigenvalues --    1.33572   1.34394   1.34894   1.37881   1.39180
 Alpha virt. eigenvalues --    1.40442   1.40743   1.42450   1.44500   1.47150
 Alpha virt. eigenvalues --    1.48711   1.49084   1.50848   1.51187   1.51735
 Alpha virt. eigenvalues --    1.52997   1.53662   1.54623   1.54844   1.55400
 Alpha virt. eigenvalues --    1.56670   1.56924   1.57775   1.58476   1.59779
 Alpha virt. eigenvalues --    1.60731   1.61258   1.62200   1.62845   1.63531
 Alpha virt. eigenvalues --    1.64047   1.64838   1.64954   1.65473   1.66174
 Alpha virt. eigenvalues --    1.66849   1.67161   1.68519   1.68846   1.69696
 Alpha virt. eigenvalues --    1.69928   1.70337   1.71699   1.72024   1.73045
 Alpha virt. eigenvalues --    1.73245   1.73724   1.73894   1.74713   1.75454
 Alpha virt. eigenvalues --    1.75736   1.76872   1.77059   1.77190   1.77920
 Alpha virt. eigenvalues --    1.78654   1.79138   1.80042   1.80630   1.81038
 Alpha virt. eigenvalues --    1.82608   1.83768   1.84601   1.86238   1.86576
 Alpha virt. eigenvalues --    1.87608   1.88078   1.88720   1.88974   1.89551
 Alpha virt. eigenvalues --    1.90805   1.91532   1.91875   1.93024   1.93483
 Alpha virt. eigenvalues --    1.93978   1.96282   1.96325   1.97662   1.99515
 Alpha virt. eigenvalues --    2.01476   2.03223   2.03541   2.04513   2.06506
 Alpha virt. eigenvalues --    2.07025   2.07734   2.08890   2.09534   2.11725
 Alpha virt. eigenvalues --    2.12270   2.14518   2.15601   2.16386   2.17084
 Alpha virt. eigenvalues --    2.18900   2.19352   2.20279   2.20686   2.22427
 Alpha virt. eigenvalues --    2.23403   2.24454   2.25408   2.26247   2.26843
 Alpha virt. eigenvalues --    2.27336   2.29335   2.29978   2.30797   2.32759
 Alpha virt. eigenvalues --    2.34038   2.36969   2.38528   2.39950   2.41072
 Alpha virt. eigenvalues --    2.42343   2.43105   2.46149   2.46925   2.54237
 Alpha virt. eigenvalues --    2.54456   2.55589   2.55932   2.56318   2.56905
 Alpha virt. eigenvalues --    2.57708   2.58376   2.59178   2.59349   2.60120
 Alpha virt. eigenvalues --    2.60875   2.61041   2.61583   2.61736   2.63258
 Alpha virt. eigenvalues --    2.63964   2.64537   2.65093   2.65635   2.66352
 Alpha virt. eigenvalues --    2.67170   2.67793   2.68937   2.69465   2.70187
 Alpha virt. eigenvalues --    2.70681   2.71919   2.73580   2.74219   2.74620
 Alpha virt. eigenvalues --    2.75903   2.76824   2.77967   2.79356   2.79656
 Alpha virt. eigenvalues --    2.80451   2.81479   2.82281   2.83763   2.84676
 Alpha virt. eigenvalues --    2.86648   2.87566   2.88721   2.89155   2.91549
 Alpha virt. eigenvalues --    2.93696   2.94107   2.96220   2.96787   2.98578
 Alpha virt. eigenvalues --    2.99558   3.02414   3.03982   3.04801   3.05649
 Alpha virt. eigenvalues --    3.06661   3.08933   3.09624   3.11404   3.11953
 Alpha virt. eigenvalues --    3.12878   3.14416   3.15846   3.17639   3.18517
 Alpha virt. eigenvalues --    3.19558   3.21440   3.22270   3.25333   3.27637
 Alpha virt. eigenvalues --    3.29752   3.31180   3.36824   3.40664   3.42563
 Alpha virt. eigenvalues --    3.45275   3.46404   3.47666   3.49599   3.68079
 Alpha virt. eigenvalues --    3.74891   3.78846   3.80542   3.82818   3.84144
 Alpha virt. eigenvalues --    3.84899   3.85446   3.86194   3.86458   3.87552
 Alpha virt. eigenvalues --    3.87873   3.90068   3.90964   3.91501   3.93058
 Alpha virt. eigenvalues --    3.93666   3.94193   3.94441   3.98387   4.10892
 Alpha virt. eigenvalues --    4.16979   4.19103   4.21596   4.31699   4.33435
 Alpha virt. eigenvalues --    4.34772   4.48299   4.98782   5.00781   5.23186
 Alpha virt. eigenvalues --    5.23649   5.26741   5.26903   5.29886   5.34301
 Alpha virt. eigenvalues --    5.63676   5.64707   5.67481   7.43965   8.26167
 Alpha virt. eigenvalues --   14.22510  14.24042  14.26922  17.65728  17.74099
 Alpha virt. eigenvalues --   17.78048  23.92714  23.97843  23.98246  23.99891
 Alpha virt. eigenvalues --   24.04994  24.06332  24.09006  24.09728  24.10490
 Alpha virt. eigenvalues --   24.11353  24.14207  35.70336  50.04519  50.06740
 Alpha virt. eigenvalues --   50.08875 163.72271 189.59703
          Condensed to atoms (all electrons):
               1          2          3          4          5          6
     1  P   17.812752   0.117483  -0.110265  -0.570884  -0.341034  -0.532262
     2  S    0.117483  17.286719  -0.244733  -0.598425   0.053823  -0.130430
     3  O   -0.110265  -0.244733   8.652403   0.399058   0.006950   0.074826
     4  C   -0.570884  -0.598425   0.399058  12.744638  -0.143968   0.151187
     5  C   -0.341034   0.053823   0.006950  -0.143968   6.764327   0.113446
     6  O   -0.532262  -0.130430   0.074826   0.151187   0.113446   8.586667
     7  C   -1.326050   0.137213  -0.226007  -0.078198   0.119169  -0.106319
     8  H   -0.232075  -0.020181   0.005596   0.021013   0.006100  -0.021558
     9  H   -0.015534   0.010911  -0.028481  -0.062116  -0.043263  -0.006376
    10  H   -0.078383   0.017425  -0.011453  -0.012739  -0.023423  -0.014799
    11  H   -0.165919  -0.104046  -0.070455   0.280416   0.295009   0.026128
    12  H    0.044299  -0.011141  -0.052380   0.025032   0.401007  -0.003807
    13  C   -0.048095   0.049778  -0.013734   0.266477  -0.992858  -0.060540
    14  H    0.027360  -0.006705   0.015525  -0.019194  -0.037903  -0.001423
    15  H   -0.030241   0.003397  -0.000386  -0.014720  -0.051978  -0.000210
    16  H   -0.122240   0.028960  -0.014818   0.103344   0.029070   0.007616
    17  C    0.174708  -0.581699  -0.124449  -5.612467   0.100928   0.105438
    18  H    0.067555  -0.282824   0.024540   0.438855  -0.005724  -0.047239
    19  H   -0.057528  -0.002311   0.011962   0.499826  -0.002739   0.019765
    20  H    0.016821   0.014275  -0.005029   0.120451   0.015673  -0.003682
    21  N    0.234407   0.166287   0.113209   0.721288   0.017175  -0.048077
    22  H   -0.027672  -0.056351   0.025059   0.343442   0.000470  -0.002030
    23  C    0.050546  -0.202789  -0.007323   0.188435  -0.079422  -0.008193
    24  C   -0.033577   0.300498  -0.308204  -1.247276   0.293759   0.035859
    25  C    0.099817  -0.117005   0.099940  -0.571565  -0.236395  -0.013721
    26  C   -0.098538   0.067354  -0.042276  -0.165003  -0.068870  -0.033194
    27  H   -0.269403   0.118017  -0.030549  -0.054733   0.063163   0.053999
    28  H    0.007966  -0.004403  -0.008039  -0.012523  -0.016145  -0.003391
    29  C    0.046830   0.140584   0.022114   0.125983  -0.042556  -0.008713
    30  C   -0.002078  -0.005311   0.000674  -0.264486   0.022171   0.003533
    31  H    0.019206   0.005784  -0.035318  -0.237557  -0.008293  -0.014558
    32  H   -0.004584  -0.005496   0.012066   0.055795   0.002794   0.000208
    33  H    0.007253  -0.006955   0.003033   0.021854   0.011018   0.005861
    34  H    0.005577   0.010368  -0.001485   0.084518   0.004160  -0.000115
    35  H    0.010126   0.002054  -0.000892   0.008610  -0.001740  -0.002854
    36  H   -0.001906  -0.007197   0.001119  -0.014730  -0.002257   0.000101
    37  H    0.002614   0.002911   0.002213   0.023995  -0.006251  -0.000374
    38  H   -0.035976   0.010868  -0.013920  -0.025475   0.081206   0.005581
    39  H    0.004937  -0.017366  -0.002539  -0.017260   0.021368  -0.000736
    40  H   -0.000289  -0.000009  -0.000397  -0.011670   0.001891   0.000119
    41  H    0.000973  -0.009081  -0.000885  -0.092183  -0.005352   0.000526
    42  H   -0.001977   0.007293   0.000801   0.055289   0.001519  -0.000523
    43  O    0.247369   0.014582  -0.101954  -0.042412  -0.089768  -0.034780
    44  H   -0.042268  -0.007030   0.008080  -0.012202   0.019014  -0.002537
    45  H    0.053258   0.002482   0.002653  -0.092717  -0.024333   0.145014
               7          8          9         10         11         12
     1  P   -1.326050  -0.232075  -0.015534  -0.078383  -0.165919   0.044299
     2  S    0.137213  -0.020181   0.010911   0.017425  -0.104046  -0.011141
     3  O   -0.226007   0.005596  -0.028481  -0.011453  -0.070455  -0.052380
     4  C   -0.078198   0.021013  -0.062116  -0.012739   0.280416   0.025032
     5  C    0.119169   0.006100  -0.043263  -0.023423   0.295009   0.401007
     6  O   -0.106319  -0.021558  -0.006376  -0.014799   0.026128  -0.003807
     7  C    7.244833   0.561341   0.361657   0.406559   0.023958   0.002246
     8  H    0.561341   0.493324  -0.029503  -0.027660  -0.002844   0.002118
     9  H    0.361657  -0.029503   0.622722  -0.055768   0.030736  -0.007005
    10  H    0.406559  -0.027660  -0.055768   0.558766  -0.009381   0.000661
    11  H    0.023958  -0.002844   0.030736  -0.009381   1.066723  -0.097881
    12  H    0.002246   0.002118  -0.007005   0.000661  -0.097881   0.593231
    13  C   -0.020898   0.009244  -0.005900   0.044295  -0.153788  -0.015252
    14  H   -0.016309  -0.000170   0.000798   0.000951  -0.017551  -0.009269
    15  H    0.016371  -0.001599   0.016417  -0.002375   0.000413  -0.016751
    16  H    0.092516   0.010155  -0.051260  -0.009658  -0.023576   0.021918
    17  C   -0.059851  -0.017414   0.033128   0.001911  -0.095979  -0.033159
    18  H   -0.049770  -0.002999  -0.006919   0.000553   0.012641   0.002814
    19  H    0.000572  -0.000417   0.001901  -0.000314   0.004465   0.000252
    20  H   -0.000136   0.000017  -0.000415   0.000200  -0.022540  -0.000533
    21  N    0.021260   0.003668  -0.007479   0.001652  -0.225733   0.045150
    22  H   -0.001669   0.001743  -0.010280  -0.001184   0.027127   0.009021
[...]
 000778,-0.00001358,0.00002106,0.00000133,0.00000316,-0.00001399,0.0000
 0269,0.00000043,-0.00000395,0.00000248,-0.00000024,0.00000014,0.000000
 82,-0.00000002,0.00000096,-0.00000093,0.00000048,-0.00000058,-0.000168
 28,-0.00010810,-0.00074625,-0.00001387,0.00000972,-0.00001269,-0.00000
 405,0.00000304,0.00000440,-0.00079430,0.00006486,-0.00053386,0.0024828
 6,0.00047886,-0.00067754,-0.00012001,0.00002117,0.00011822,-0.00400326
 ,-0.02765594,0.00040220,-0.00032920,0.00005416,0.00017157,0.00004137,0
 .00003998,0.00006454,-0.00054592,0.00047469,0.00017622,0.00006804,0.00
 004109,-0.00001518,0.00089565,0.00061872,-0.00035127,-0.00456538,0.000
 09878,0.00402710,-0.05668027,-0.05156130,0.00528403,0.00001663,0.00000
 794,-0.00003342,-0.00003344,0.00000433,-0.00001721,-0.00000920,0.00000
 522,-0.00001569,-0.00010164,0.00018465,-0.00012112,0.00019472,-0.00001
 171,-0.00000866,0.00017505,0.00038394,0.00056111,0.00042418,0.00005108
 ,0.00001280,-0.00047394,-0.00183552,0.00017800,0.00003874,0.00021668,-
 0.00009292,0.00582774,0.02401314,-0.00097806,-0.00160818,-0.00249557,0
 .00020223,0.05919152,0.00000123,0.00001105,0.00006329,0.00009347,-0.00
 000575,-0.00000364,-0.00001941,0.00001833,-0.00001808,0.00002789,0.000
 16320,-0.00011568,-0.00000218,-0.00001902,-0.00001589,-0.00000077,-0.0
 0001164,-0.00000917,0.00000977,0.00000393,-0.00001142,-0.00000008,-0.0
 0000037,-0.00000017,-0.00000207,-0.00000308,-0.00000258,0.00000516,-0.
 00000083,-0.00000010,0.00000164,0.00000796,0.00001957,-0.00000110,0.00
 000282,-0.00000752,-0.00000597,0.00000407,0.00000540,0.00000087,0.0000
 0003,-0.00000074,-0.00000300,-0.00000291,0.00000009,-0.00000098,-0.000
 00196,-0.00000127,0.00004300,-0.00021298,0.00038875,-0.00000466,0.0000
 0126,0.00000450,-0.00001389,0.00000613,-0.00000919,0.00036898,0.000267
 96,-0.00027530,-0.00038258,0.00062543,0.00031274,0.00006179,0.00012286
 ,0.00003486,0.00092675,-0.00347373,-0.00033105,-0.00037430,0.00006555,
 -0.00006090,0.00002100,-0.00000573,0.00000324,0.00042098,-0.00195635,-
 0.00149214,0.00000174,0.00008263,0.00003434,-0.00026921,0.00012926,0.0
 0027336,-0.00119781,0.00103432,0.00143101,-0.05400799,-0.30670919,0.02
 546392,0.00000610,-0.00000424,0.00000391,-0.00001630,0.00000099,-0.000
 00529,-0.00000911,0.00001276,0.00000542,-0.00016780,-0.00007454,-0.000
 08542,0.00056727,-0.00015117,-0.00005764,0.00127922,-0.00111881,-0.000
 44585,0.00000785,0.00025107,-0.00011795,-0.00018403,-0.00041371,-0.000
 13239,0.00006088,0.00005291,-0.00009919,-0.00247845,-0.01120304,0.0004
 3845,-0.00155152,-0.01076690,0.00162865,0.05679010,0.33327267,-0.00000
 995,0.00001585,0.00000747,0.00002265,0.00000536,-0.00001597,0.00001553
 ,-0.00001148,-0.00000457,0.00000591,0.00006475,-0.00001086,-0.00000121
 ,-0.00000108,0.00001396,-0.00000246,-0.00000470,-0.00000085,0.00000442
 ,-0.00000054,-0.00000297,0.00000012,-0.00000004,0.00000052,-0.00000072
 ,-0.00000103,-0.00000103,0.00000143,0.00000067,-0.00000033,0.00000110,
 0.00000199,-0.00001705,-0.00000269,-0.00000217,0.00000673,0.00000160,-
 0.00000240,-0.00000152,-0.00000200,0.00000041,-0.00000047,0.00000141,0
 .00000167,-0.00000028,0.00000020,0.00000003,-0.00000020,-0.00004544,-0
 .00059820,0.00022390,-0.00000801,-0.00000630,-0.00000954,0.00001252,-0
 .00000071,0.00000188,-0.00009846,0.00007127,-0.00002412,-0.00113439,-0
 .00048065,0.00041200,-0.00018308,0.00002624,0.00005316,0.00075096,0.01
 762254,-0.00156150,0.00024277,0.00010930,-0.00001436,-0.00001850,-0.00
 000771,-0.00002050,0.00031233,-0.00042104,-0.00002712,-0.00002923,-0.0
 0007987,-0.00002039,-0.00085311,-0.00018807,0.00038532,0.00305321,0.00
 008677,-0.00159678,0.00567125,0.02439027,-0.04862717,-0.00001056,-0.00
 000461,0.00001402,0.00000800,0.00000224,-0.00000119,-0.00000227,-0.000
 00660,-0.00000272,-0.00001611,0.00003815,0.00000861,-0.00010757,-0.000
 00122,0.00001841,0.00036246,-0.00088210,-0.00080213,0.00007007,-0.0003
 0753,-0.00002820,0.00057473,0.00100044,0.00027278,0.00018421,0.0002932
 9,0.00010888,0.00405608,0.01440604,-0.00185598,-0.00524866,-0.02831908
 ,0.00411225,-0.00758265,-0.02680701,0.04900961,-0.04442012,0.00751890,
 0.01309491,-0.00038552,0.00126904,0.00217555,-0.02899537,0.04854230,0.
 00729660,0.00021428,-0.00000399,0.00019734,0.00188917,-0.00779326,-0.0
 0032319,-0.01972415,-0.01430777,0.03843666,0.00094268,-0.00813354,-0.0
 0728439,0.00076347,-0.00018759,0.00035822,-0.00017022,-0.00037408,-0.0
 0159670,0.00148194,0.00045826,-0.00143450,-0.00056267,0.00142794,0.000
 07697,-0.00075983,0.00137675,-0.00014194,-0.00098966,0.00124848,-0.000
 15958,0.00053058,0.00053133,0.00013824,0.00020622,-0.00001653,-0.00002
 801,0.00010896,-0.00007175,0.00006113,0.00017240,-0.00005616,0.0000190
 2,0.00003872,0.00031713,-0.00010893,-0.00025887,0.00000964,0.00007310,
 -0.00013523,-0.00001099,-0.00000983,-0.00053576,-0.00019371,0.00004236
 ,-0.00001428,0.00004181,-0.00001940,0.00014247,-0.00012078,0.00006102,
 0.00006125,0.00000815,0.00007725,0.00000138,0.00002325,-0.00005421,-0.
 00003391,0.00001161,-0.00003664,0.00013797,0.00014452,0.00003695,-0.00
 002249,0.00000802,-0.00002155,-0.00005019,0.00005690,-0.00006961,-0.00
 004427,0.00003196,-0.00002057,0.00000537,-0.00003121,-0.00000128,-0.00
 003685,-0.00001203,-0.00003139,0.00002924,-0.00002494,-0.00001150,-0.0
 0000368,0.00000313,0.00001183,-0.00001563,-0.00002889,-0.00000034,-0.0
 0003900,-0.00001882,0.00000359,-0.00003813,0.00000881,0.00001192,-0.00
 002169,-0.00001467,0.00005349,0.00001141,0.00000291,-0.00000725,-0.000
 02834,0.00000483,0.00000415,-0.00000239,-0.00000340,0.00000092,0.00000
 281,-0.00000231,0.00000465,0.15762362,-0.00258456,-0.06966878,-0.00565
 171,0.00263212,0.00104158,-0.00192567,0.03450173,-0.04187864,-0.007149
 60,-0.00054086,-0.00110619,-0.00091266,0.00186693,0.00848765,-0.000423
 26,-0.02421149,-0.00671075,0.02927001,0.00475408,-0.01159323,-0.020846
 28,-0.00105141,-0.00013826,-0.00070580,-0.00395477,0.00015299,-0.00326
 108,0.00282378,0.00022881,-0.00113645,0.00074920,-0.00193638,0.0000308
 0,0.00082515,-0.00135198,0.00010369,0.00034588,-0.00044226,0.00005120,
 -0.00027399,-0.00038163,-0.00002122,-0.00021488,-0.00003185,0.00002236
 ,-0.00011475,0.00021289,-0.00000277,0.00003473,0.00041862,-0.00009562,
 0.00023033,0.00032294,0.00006699,0.00050100,0.00034313,0.00006250,0.00
 023228,-0.00003683,0.00009107,0.00051756,0.00017171,0.00005833,-0.0000
 5816,0.00000835,-0.00000780,-0.00013085,0.00012678,-0.00004168,0.00005
 016,-0.00023172,-0.00006551,0.00004224,-0.00003416,0.00006137,-0.00001
 903,0.00004884,0.00001210,0.00004351,-0.00000566,-0.00002022,0.0000254
 6,-0.00001586,0.00002552,0.00003497,-0.00005784,0.00008830,0.00003468,
 -0.00001830,0.00002054,0.00004597,-0.00000244,-0.00002160,0.00001880,0
 .00002345,0.00000149,0.00001295,0.00002152,0.00002695,-0.00000174,-0.0
 0000408,-0.00000127,0.00001443,0.00003091,0.00000481,0.00000099,-0.000
 00129,-0.00000327,0.00004482,-0.00000080,-0.00001326,0.00002981,0.0000
 1950,-0.00006678,-0.00000846,-0.00000216,0.00000972,0.00002254,-0.0000
 0671,-0.00000164,0.00000683,0.00000482,0.00000400,0.00000268,0.0000009
 0,-0.00000326,0.07736896,0.36130366,0.01036094,-0.02283138,-0.06843845
 ,0.00502436,-0.00134213,-0.00345656,0.00135349,-0.00225722,0.00243616,
 -0.00023228,-0.00120605,-0.00110564,-0.00127056,0.00264329,0.00232827,
 0.03653463,0.01723008,-0.04179080,0.00901351,-0.02232786,-0.02203239,0
 .00154197,-0.00004039,-0.00003644,-0.00615742,-0.00205457,-0.00213378,
 0.00096909,-0.00024237,-0.00032762,-0.00019094,0.00024056,-0.00008417,
 0.00029434,-0.00073364,0.00000994,0.00005060,-0.00018972,-0.00015224,-
 0.00001504,-0.00012593,0.00005652,-0.00005200,-0.00001729,0.00003556,-
 0.00002396,0.00029083,0.00007244,-0.00003636,0.00056155,-0.00060098,0.
 00008778,-0.00044814,0.00020478,0.00080437,0.00016886,-0.00010930,0.00
 041226,-0.00005375,0.00019449,0.00038448,-0.00003706,0.00019045,-0.000
 00245,-0.00004544,0.00003741,-0.00017078,0.00020764,-0.00005590,-0.000
 11918,-0.00007590,-0.00017158,0.00012261,0.00000350,0.00003878,0.00003
 864,-0.00001514,0.00007036,-0.00001526,-0.00018147,-0.00015027,0.00005
 477,-0.00002324,0.00004393,0.00005679,-0.00002743,0.00002106,0.0000624
 5,-0.00005526,0.00003359,0.00004912,-0.00002129,-0.00000932,0.00001559
 ,-0.00000333,0.00005421,0.00001832,0.00003004,0.00003922,-0.00000213,-
 0.00000476,0.00000347,0.00001811,0.00004051,0.00000253,0.00004614,0.00
 002518,0.00000081,0.00001763,-0.00002945,0.00000202,-0.00000245,0.0000
 0404,-0.00001398,-0.00001038,0.00000827,0.00000480,0.00003738,-0.00000
 812,0.00000313,0.00000175,0.00001411,0.00001123,-0.00000547,-0.0000063
 4,-0.00000280,-0.18199738,-0.19699410,0.39875994,-0.00674041,-0.007465
 44,0.01070947,0.00003488,0.00006970,-0.00031873,0.00203069,-0.00203713
 ,-0.00102985,-0.00005829,-0.00005004,-0.00007428,0.00026015,0.00139237
 ,-0.00066812,-0.00073306,-0.00190991,0.00549319,-0.00030132,-0.0002322
 6,-0.00122555,0.00007044,-0.00019782,-0.00016017,-0.00023608,-0.000194
 29,0.00002502,-0.00031674,-0.00042309,-0.00041172,0.00017333,-0.000458
 71,-0.00003726,0.00007108,-0.00014749,0.00005061,0.00009612,-0.0000885
 3,0.00001996,-0.00006112,-0.00008646,-0.00001107,-0.00004074,0.0000026
 8,0.00000034,-0.00002585,0.00001239,-0.00000707,0.00000127,0.00002707,
 0.00002835,0.00002967,0.00003767,-0.00000620,0.00003554,0.00002819,0.0
 0000648,0.00001633,0.00000221,-0.00000213,0.00011523,0.00004045,-0.000
 02215,-0.00000892,0.00000059,-0.00000324,-0.00002129,0.00001159,-0.000
 00754,0.00000591,-0.00002788,0.00000756,0.00002271,-0.00002272,0.00002
 773,-0.00000186,0.00000658,-0.00000463,0.00000034,-0.00000107,0.000006
 47,0.00000304,-0.00000130,0.00000164,0.00001223,-0.00001616,0.00001941
 ,0.00000518,-0.00000123,0.00000024,0.00000261,0.00001744,-0.00000993,0
 .00001392,0.00000947,-0.00000383,-0.00000691,-0.00000776,-0.00000117,0
 .00000159,-0.00000087,-0.00000308,0.00000180,0.00000198,0.00000071,0.0
 0000232,0.00000097,-0.00000062,0.00000801,0.00000127,-0.00000358,0.000
 00563,0.00000196,-0.00001031,-0.00000178,-0.00000046,-0.00000055,0.000
 00333,-0.00000085,-0.00000059,0.00000128,0.00000040,-0.00000079,0.0000
 0021,0.00000075,-0.00000073,-0.06457519,-0.09327540,0.12133645,0.07082
 547,0.00435134,0.00836787,-0.00949437,0.00020444,-0.00002205,-0.000144
 96,0.00175768,-0.00227047,-0.00038104,0.00005926,0.00000172,-0.0000360
 5,0.00002318,-0.00023098,0.00024793,0.00264430,0.00329825,-0.00302837,
 -0.00006829,-0.00158602,-0.00071549,0.00025218,0.00010415,0.00015576,-
 0.00026520,-0.00022868,0.00010297,-0.00073088,-0.00071366,-0.00106374,
 -0.00003528,0.00008741,-0.00000072,0.00000625,0.00000195,-0.00001570,0
 .00003439,0.00004894,-0.00004653,-0.00001827,0.00000576,0.00000796,-0.
 00005387,0.00001530,0.00005053,-0.00000363,0.00000376,-0.00000535,0.00
 000363,0.00000895,-0.00003082,-0.00001075,-0.00003964,0.00000556,0.000
 03064,0.00000815,-0.00001354,0.00000431,-0.00000261,0.00000380,-0.0000
 2571,-0.00000865,0.00001249,-0.00000067,-0.00000340,0.00000203,-0.0000
 0384,0.00000350,0.00000164,-0.00000334,-0.00000284,-0.00000883,-0.0000
 0404,0.00000690,-0.00000246,-0.00000120,-0.00000100,0.00000142,-0.0000
 2176,-0.00000047,-0.00000098,-0.00000009,-0.00000081,0.00000012,0.0000
 0008,0.00000591,-0.00000750,0.00000016,-0.00000224,0.00000103,-0.00001
 115,0.00000249,-0.00000652,0.00000136,-0.00000089,0.00000051,-0.000002
 52,-0.00000615,-0.00000218,-0.00000249,-0.00000134,-0.00000066,-0.0000
 0136,-0.00000159,0.00000025,0.00000042,-0.00000016,0.00000072,-0.00000
 275,-0.00000128,0.00000096,0.00000003,-0.00000112,0.00000218,-0.000001
 51,0.00000172,0.,0.00000038,0.00000041,-0.00000004,-0.00000144,-0.0000
 0004,-0.00000042,-0.00000029,-0.00000020,-0.00000002,-0.11278355,-0.24
 020992,0.23578381,0.10383433,0.23247484,0.00889146,0.01106137,-0.01657
 915,-0.00033610,0.00005652,0.00034643,-0.00418843,0.00370809,0.0003899
 6,0.00015697,0.00021549,0.00005125,-0.00003183,-0.00127943,0.00029293,
 0.00224872,0.00006817,-0.00010207,0.00023335,-0.00003484,0.00061211,0.
 00023871,0.00011473,0.00023384,0.00002789,-0.00015965,0.00070098,-0.00
 140860,-0.00103765,-0.00063252,-0.00014324,0.00035165,0.00002664,-0.00
 010889,0.00018134,-0.00004968,-0.00008198,0.00009372,-0.00000515,0.000
 04987,0.00008562,0.00000444,0.00005072,-0.00000383,-0.00000083,0.00002
 414,-0.00004131,-0.00001292,-0.00000252,-0.00006963,0.00000498,-0.0000
 1271,-0.00010068,-0.00003194,-0.00005103,-0.00005259,-0.00001519,-0.00
 004125,0.00000500,-0.00001541,-0.00009389,-0.00003676,-0.00000805,0.00
 000939,-0.00000387,0.00000049,0.00002630,-0.00002570,0.00001420,0.0000
 0685,0.00002744,0.00002236,-0.00000667,0.00000691,-0.00001737,-0.00000
 091,-0.00000470,-0.00000511,0.00000977,0.00001067,0.00000410,-0.000005
 64,0.00000144,-0.00000564,-0.00000941,0.00001170,-0.00001591,-0.000008
 14,0.00000547,-0.00000585,-0.00000851,-0.00000371,0.00000622,-0.000005
 35,-0.00000545,-0.00000205,0.00000110,-0.00000858,-0.00000330,-0.00000
 170,0.00000089,-0.00000040,-0.00000351,-0.00000538,-0.00000090,-0.0000
 0173,0.00000017,0.00000052,-0.00000837,0.00000121,0.00000184,-0.000001
 91,-0.00000393,0.00001229,0.00000269,0.00000014,-0.00000267,-0.0000046
 8,0.00000128,0.00000069,0.00000020,-0.00000143,-0.00000079,0.00000002,
 0.00000015,0.00000062,0.12797488,0.20750021,-0.25953454,-0.13387640,-0
 .22076191,0.27553795,0.00360266,-0.01074148,-0.00756496,0.00128971,-0.
 00172963,-0.00016865,-0.00057412,0.00057120,0.00056921,0.00011035,0.00
 034098,0.00017016,-0.00011124,0.00002686,-0.00002427,-0.06201034,0.107
 73320,0.10806140,0.00045383,-0.00053739,0.00022470,0.00001096,0.000026
 89,0.00002236,-0.00025603,-0.00011183,0.00008802,-0.00011541,-0.000188
 04,-0.00016127,-0.00001765,0.00004733,-0.00002411,-0.00001329,0.000004
 62,0.00001680,0.00000589,-0.00000859,-0.00001296,0.00000362,-0.0000035
 8,0.00000162,0.00000026,0.00000159,0.00001346,-0.00000298,0.00001948,-
 0.00000921,0.00003994,0.00016729,0.00001764,0.00040448,0.00022934,-0.0
 0019465,0.00000819,0.00010958,0.00006312,0.00001807,0.00001789,0.00002
 090,0.00007585,-0.00005472,0.00002343,-0.00008153,-0.00000026,-0.00003
 558,-0.00001378,0.00000643,-0.00001436,-0.00009975,0.00006818,-0.00010
 070,-0.00001108,0.00001893,-0.00001048,0.00004326,-0.00001721,0.000012
 15,-0.00004348,0.00001119,0.00002476,-0.00000131,0.00000227,-0.0000005
 0,0.00000199,-0.00000452,0.00000183,0.00000048,-0.00000153,0.00000011,
 0.00000858,-0.00000347,-0.00000222,0.00000512,-0.00000761,0.00000288,-
 0.00002802,-0.00000541,-0.00002941,-0.00000472,-0.00000720,-0.00000374
 ,-0.00001073,-0.00000466,-0.00001016,0.00001270,0.00000424,0.00000019,
 0.00000201,-0.00000174,0.00000128,0.00000326,0.00000068,0.00000306,-0.
 00000166,0.00000029,-0.00000170,0.00000289,-0.00000077,-0.00000102,0.0
 0000104,-0.00000114,-0.00000114,-0.00000206,-0.00000094,0.00000020,-0.
 00250050,-0.00137423,0.00159649,-0.00072076,0.00084553,0.00049036,0.06
 051528,0.00393963,-0.03690339,-0.01384900,-0.00020159,-0.00342807,-0.0
 0155829,-0.00082210,0.00263399,-0.00045014,-0.00078958,-0.00003991,0.0
 0058378,0.00034767,-0.00061763,-0.00019237,0.08735383,-0.25364944,-0.1
 9597375,0.00029995,0.00123667,-0.00030876,-0.00027826,-0.00004893,-0.0
 0008713,0.00021350,0.00017267,0.00014943,0.00016044,0.00021064,0.00018
 242,-0.00003755,0.00010590,-0.00005424,-0.00007417,0.00018358,-0.00002
 304,-0.00013169,0.00018904,-0.00001846,0.00004998,0.00006095,0.0000219
 2,0.00001103,-0.00000835,-0.00000430,0.00002590,-0.00000372,0.00000087
 ,0.00007557,0.00019818,0.00004169,0.00049907,0.00060782,-0.00010240,-0
 .00011317,0.00011916,0.00011114,0.00001838,-0.00000784,0.00002971,-0.0
 0008761,-0.00002796,-0.00000505,-0.00008277,0.00004041,-0.00002701,0.0
 0003264,-0.00001791,0.00002628,0.00008212,-0.00010003,0.00006048,-0.00
 003322,0.00000482,0.00001911,-0.00005377,0.00005194,-0.00003048,0.0001
 8747,0.00012768,0.00007929,-0.00000328,0.00000042,-0.00000305,-0.00001
 320,0.00000857,-0.00001200,-0.00000800,0.00000663,-0.00000594,-0.00000
 259,-0.00000347,0.00000156,-0.00001322,0.00000552,-0.00002241,0.000017
 30,-0.00001522,0.00000075,-0.00000272,-0.00000093,0.00000638,0.0000023
 4,-0.00000974,-0.00000391,-0.00002983,-0.00002585,0.00000254,-0.000005
 45,0.00000595,0.00000125,-0.00000113,-0.00000336,0.00000355,0.00000112
 ,-0.00000133,0.00000165,-0.00000646,0.00000053,0.00000156,-0.00000178,
 0.00000066,0.00000025,0.00000107,-0.00000191,0.00000013,0.00377530,0.0
 0289868,-0.00585350,0.00114682,0.00088825,0.00013166,-0.09544806,0.285
 15632,-0.00319494,0.00686650,0.00734833,0.00000127,0.00115136,0.002796
 61,0.00005290,0.00076222,0.00015214,-0.00010902,-0.00015766,-0.0000555
 3,0.00022298,-0.00012600,-0.00026781,0.10315207,-0.22705801,-0.2266574
 7,0.00001059,0.00010295,-0.00083612,-0.00011960,-0.00004690,-0.0000123
 3,-0.00002148,-0.00001680,-0.00006245,0.00019341,0.00015263,0.00003258
 ,0.00002848,0.00002333,0.00001818,-0.00000531,0.00006619,0.00000374,-0
 .00002223,0.00001793,0.00000209,0.00000634,0.00001618,0.00000342,0.000
 00218,0.00000572,0.00000259,-0.00001706,-0.00002587,-0.00000707,0.0000
 7008,-0.00012533,0.00002495,-0.00042269,-0.00000124,-0.00002199,-0.000
 06238,-0.00000087,-0.00005087,-0.00004455,0.00002084,-0.00001320,-0.00
 002234,-0.00002271,-0.00003170,0.00002386,0.00002916,0.00001965,0.0000
 2424,-0.00002057,0.00000927,-0.00003584,0.00001143,0.00001858,-0.00001
 245,0.00002628,0.00000570,-0.00000341,0.00000536,-0.00001074,0.0000626
 4,-0.00000254,0.00002823,-0.00000847,0.00000165,-0.00000808,-0.0000101
 2,0.00000050,0.00000712,-0.00000746,0.00000762,-0.00000231,0.00000794,
 0.00000058,-0.00000201,0.00000292,-0.00000524,-0.00001131,-0.00000443,
 -0.00002291,-0.00002552,0.00001281,-0.00000291,-0.00000311,-0.00000393
 ,-0.00000697,-0.00000133,-0.00000707,-0.00000470,-0.00000171,-0.000000
 35,0.00000423,-0.00000060,0.00000396,-0.00000010,0.00000445,-0.0000007
 9,-0.00000063,-0.00000359,-0.00000360,0.00000148,-0.00000067,0.0000009
 3,-0.00000136,-0.00000147,-0.00000019,0.00000026,0.00000049,0.00314750
 ,0.00186056,-0.00444835,0.00016768,-0.00061346,-0.00121743,-0.10305504
 ,0.21712786,0.22327666\\0.00000015,0.00000096,0.00000129,-0.00000102,0
 .00000025,0.00000084,0.00000040,0.00000087,0.00000105,-0.00000082,-0.0
 0000034,-0.00000011,-0.00000011,0.00000064,0.00000095,0.00000042,0.000
 00068,0.00000075,-0.00000044,0.00000135,0.00000217,-0.00000039,0.00000
 150,0.00000230,-0.00000109,0.00000119,0.00000219,-0.00000017,0.0000017
 3,0.00000252,-0.00000047,0.00000024,0.00000056,0.00000031,0.00000064,0
 .00000075,-0.00000065,0.00000093,0.00000166,-0.00000095,0.00000079,0.0
 0000156,-0.00000029,0.00000137,0.00000204,-0.00000113,0.00000093,0.000
 00184,-0.00000074,-0.00000071,-0.00000065,-0.00000028,-0.00000022,-0.0
 0000017,-0.00000133,-0.00000056,-0.00000016,-0.00000073,-0.00000108,-0
 .00000116,-0.00000006,-0.00000051,-0.00000069,-0.00000131,-0.00000083,
 -0.00000055,-0.00000012,-0.00000085,-0.00000114,0.00000074,-0.00000032
 ,-0.00000079,0.00000143,0.00000002,-0.00000064,0.00000101,-0.00000073,
 -0.00000150,0.00000073,0.,-0.00000041,0.00000050,-0.00000076,-0.000001
 30,-0.00000064,-0.00000074,-0.00000073,-0.00000044,-0.00000144,-0.0000
 0182,0.00000121,0.00000028,-0.00000019,0.00000163,-0.00000022,-0.00000
 110,0.00000195,0.00000026,-0.00000056,0.00000056,-0.00000097,-0.000001
 63,0.00000159,-0.00000054,-0.00000152,0.00000114,-0.00000098,-0.000001
 94,-0.00000070,-0.00000100,-0.00000108,-0.00000036,-0.00000033,-0.0000
 0030,-0.00000125,-0.00000079,-0.00000051,-0.00000035,-0.00000165,-0.00
 000218,-0.00000109,-0.00000158,-0.00000171,-0.00000011,-0.00000154,-0.
 00000212,0.00000105,0.00000147,0.00000155,0.00000118,0.00000170,0.0000
 0182,0.00000099,0.00000089,0.00000080\\\@


 NOTHING RESEMBLES A NEW PHENOMENON AS MUCH AS A MISTAKE.

                               -- ENRICO FERMI (?)
 Job cpu time:       1 days 16 hours  2 minutes 34.5 seconds.
 File lengths (MBytes):  RWF=   1507 Int=      0 D2E=      0 Chk=     44 Scr=      1
 Normal termination of Gaussian 09 at Tue Nov  5 14:34:52 2019.
