 Entering Gaussian System, Link 0=g09
 Input=/rdsgpfs/general/user/smf115/home/vxHydrolysis/ReactionSMD/Diffuse/path1/Int1a_sp.com
 Output=/rdsgpfs/general/user/smf115/home/vxHydrolysis/ReactionSMD/Diffuse/path1/Int1a_sp.log
 Initial command:
 /apps/gaussian/g09_d01/g09/l1.exe "/tmp/pbs.696418.pbs/Gau-4827.inp" -scrdir="/tmp/pbs.696418.pbs/"
 Entering Link 1 = /apps/gaussian/g09_d01/g09/l1.exe PID=      4828.
  
 Copyright (c) 1988,1990,1992,1993,1995,1998,2003,2009,2013,
            Gaussian, Inc.  All Rights Reserved.
  
 This is part of the Gaussian(R) 09 program.  It is based on
 the Gaussian(R) 03 system (copyright 2003, Gaussian, Inc.),
 the Gaussian(R) 98 system (copyright 1998, Gaussian, Inc.),
 the Gaussian(R) 94 system (copyright 1995, Gaussian, Inc.),
 the Gaussian 92(TM) system (copyright 1992, Gaussian, Inc.),
 the Gaussian 90(TM) system (copyright 1990, Gaussian, Inc.),
 the Gaussian 88(TM) system (copyright 1988, Gaussian, Inc.),
 the Gaussian 86(TM) system (copyright 1986, Carnegie Mellon
 University), and the Gaussian 82(TM) system (copyright 1983,
 Carnegie Mellon University). Gaussian is a federally registered
 trademark of Gaussian, Inc.
  
 This software contains proprietary and confidential information,
 including trade secrets, belonging to Gaussian, Inc.
  
 This software is provided under written license and may be
 used, copied, transmitted, or stored only in accord with that
 written license.
  
 The following legend is applicable only to US Government
 contracts under FAR:
  
                    RESTRICTED RIGHTS LEGEND
  
 Use, reproduction and disclosure by the US Government is
 subject to restrictions as set forth in subparagraphs (a)
 and (c) of the Commercial Computer Software - Restricted
 Rights clause in FAR 52.227-19.
  
 Gaussian, Inc.
 340 Quinnipiac St., Bldg. 40, Wallingford CT 06492
  
  
 ---------------------------------------------------------------
 Warning -- This program may not be used in any manner that
 competes with the business of Gaussian, Inc. or will provide
 assistance to any competitor of Gaussian, Inc.  The licensee
 of this program is prohibited from giving any competitor of
 Gaussian, Inc. access to this program.  By using this program,
 the user acknowledges that Gaussian, Inc. is engaged in the
 business of creating and licensing software in the field of
 computational chemistry and represents and warrants to the
 licensee that it is not a competitor of Gaussian, Inc. and that
 it will not use this program in any manner prohibited above.
 ---------------------------------------------------------------
  

 Cite this work as:
 Gaussian 09, Revision D.01,
 M. J. Frisch, G. W. Trucks, H. B. Schlegel, G. E. Scuseria, 
 M. A. Robb, J. R. Cheeseman, G. Scalmani, V. Barone, B. Mennucci, 
 G. A. Petersson, H. Nakatsuji, M. Caricato, X. Li, H. P. Hratchian, 
 A. F. Izmaylov, J. Bloino, G. Zheng, J. L. Sonnenberg, M. Hada, 
 M. Ehara, K. Toyota, R. Fukuda, J. Hasegawa, M. Ishida, T. Nakajima, 
 Y. Honda, O. Kitao, H. Nakai, T. Vreven, J. A. Montgomery, Jr., 
 J. E. Peralta, F. Ogliaro, M. Bearpark, J. J. Heyd, E. Brothers, 
 K. N. Kudin, V. N. Staroverov, T. Keith, R. Kobayashi, J. Normand, 
 K. Raghavachari, A. Rendell, J. C. Burant, S. S. Iyengar, J. Tomasi, 
 M. Cossi, N. Rega, J. M. Millam, M. Klene, J. E. Knox, J. B. Cross, 
 V. Bakken, C. Adamo, J. Jaramillo, R. Gomperts, R. E. Stratmann, 
 O. Yazyev, A. J. Austin, R. Cammi, C. Pomelli, J. W. Ochterski, 
 R. L. Martin, K. Morokuma, V. G. Zakrzewski, G. A. Voth, 
 P. Salvador, J. J. Dannenberg, S. Dapprich, A. D. Daniels, 
 O. Farkas, J. B. Foresman, J. V. Ortiz, J. Cioslowski, 
 and D. J. Fox, Gaussian, Inc., Wallingford CT, 2013.
 
 ******************************************
 Gaussian 09:  ES64L-G09RevD.01 24-Apr-2013
                 5-Nov-2019 
 ******************************************
 %Chk=Int1a_sp
 %NProcShared=16
 Will use up to   16 processors via shared memory.
 %Mem=52000MB
 ----------------------------------------------------------------------
 #P M062X/6-311++G(d,p) Opt(RCFC,Tight) Freq SCRF(SMD) SCF(Conver=9) In
 t(Grid=UltraFine) Geom(Check) Guess(Read)
 ----------------------------------------------------------------------
 1/7=10,10=5,14=-1,18=20,19=15,26=4,29=2,38=1/1,3;
 2/9=110,12=2,40=1/2;
 3/5=4,6=6,7=1111,11=2,14=-4,16=1,25=1,30=1,70=32201,71=1,72=1,74=-55,75=-5,116=-2/1,2,3;
 4/5=1/1;
 5/5=2,6=9,38=6/2;
 6/7=2,8=2,9=2,10=2,28=1/1;
 7//1,2,3,16;
 1/7=10,14=-1,18=20,19=15,26=4/3(2);
 2/9=110/2;
 99//99;
 2/9=110/2;
 3/5=4,6=6,7=1111,11=2,14=-2,16=1,25=1,30=1,70=32205,71=1,74=-55,75=-5/1,2,3;
 4/5=5,16=3,69=1/1;
 5/5=2,6=9,38=5/2;
 7//1,2,3,16;
 1/7=10,14=-1,18=20,19=15,26=4/3(-5);
 2/9=110/2;
 6/7=2,8=2,9=2,10=2,19=2,28=1/1;
 99/9=1/99;
 Leave Link    1 at Tue Nov  5 11:43:15 2019, MaxMem=  6815744000 cpu:         1.3
 (Enter /apps/gaussian/g09_d01/g09/l101.exe)
 --------------------------------
 Int1a_sp opt tight freq; diffuse
 --------------------------------
 Structure from the checkpoint file:  "Int1a_sp.chk"
 Charge =  0 Multiplicity = 1
 Redundant internal coordinates found in file.
 P,0,2.2026852819,0.1301321993,0.5141764292
 S,0,0.8906512209,1.7348033316,0.8383097198
 O,0,2.7508064266,0.3646114243,-0.9735657752
 C,0,-0.3661949987,0.9912780871,1.9592940472
 C,0,1.9034089021,0.1843751285,-2.1428392561
 O,0,1.5368422408,-1.1999697967,0.7260062683
 C,0,3.6825485578,0.3740833654,1.4845817916
 H,0,3.4124557243,0.3257322985,2.5405117714
 H,0,4.1204973409,1.3466278126,1.2591606635
 H,0,4.3889523904,-0.4234716973,1.2465529252
 H,0,0.9803649127,-0.3215661174,-1.8503759127
 H,0,2.4609779326,-0.4785103415,-2.8046622559
 C,0,1.6394822942,1.5207700547,-2.7950230143
 H,0,1.0617392757,1.3685705556,-3.7092978851
 H,0,2.5811775309,2.006171311,-3.05853603
 H,0,1.0731830257,2.1770102703,-2.1316282812
 C,0,-1.7480372676,0.9405009108,1.3139053624
 H,0,-0.0131406402,0.007662899,2.265543133
 H,0,-0.395708238,1.633014758,2.8398540702
 H,0,-2.4699632613,0.7557703486,2.1261302859
 N,0,-1.8669650674,-0.0310392978,0.2404638479
 H,0,-1.9735942522,1.9350247771,0.9248303367
 C,0,-2.8000952816,0.3653663603,-0.8305109293
 C,0,-1.9952124425,-1.417657621,0.7216834778
 C,0,-1.5341891694,-2.4222308221,-0.3338052031
 C,0,-3.388754328,-1.8007799512,1.2352522458
 H,0,-1.3000084064,-1.5002624376,1.5628307278
 H,0,-3.0598467825,-0.5515979147,-1.3640326269
 C,0,-2.0929877184,1.2919819939,-1.8186330857
 C,0,-4.1121587614,1.0098354332,-0.3580780112
 H,0,-0.5396799827,-2.1723763135,-0.7094936005
 H,0,-2.2245568003,-2.4648258459,-1.18060423
 H,0,-1.4927020562,-3.4235687534,0.1026818108
 H,0,-3.7519125921,-1.1009140937,1.9917005808
 H,0,-3.3532119913,-2.7951293456,1.6879311401
 H,0,-4.1118490626,-1.8322769885,0.4151616864
 H,0,-2.777746677,1.6049135273,-2.611894293
 H,0,-1.2367134454,0.7893730414,-2.2754332196
 H,0,-1.7303309602,2.1918171722,-1.3118248223
 H,0,-4.8040850061,1.0822768726,-1.2011882348
 H,0,-3.9468006256,2.0239789656,0.0155870812
 H,0,-4.5979216856,0.4310534909,0.4284080709
 O,0,2.0654268906,-3.1272917566,-1.2529561095
 H,0,2.6708288358,-2.6410787352,-1.8229111302
 H,0,1.8266997169,-2.4871705599,-0.5592615673
 Recover connectivity data from disk.
 NAtoms=     45 NQM=       45 NQMF=       0 NMMI=      0 NMMIF=      0
                NMic=       0 NMicF=      0.
                    Isotopes and Nuclear Properties:
 (Nuclear quadrupole moments (NQMom) in fm**2, nuclear magnetic moments (NMagM)
  in nuclear magnetons)

  Atom         1           2           3           4           5           6           7           8           9          10
 IAtWgt=          31          32          16          12          12          16          12           1           1           1
 AtmWgt=  30.9737634  31.9720718  15.9949146  12.0000000  12.0000000  15.9949146  12.0000000   1.0078250   1.0078250   1.0078250
 NucSpn=           1           0           0           0           0           0           0           1           1           1
 AtZEff= -12.9400000 -13.6000000  -5.6000000  -3.6000000  -3.6000000  -5.6000000  -3.6000000  -1.0000000  -1.0000000  -1.0000000
 NQMom=    0.0000000   0.0000000   0.0000000   0.0000000   0.0000000   0.0000000   0.0000000   0.0000000   0.0000000   0.0000000
 NMagM=    1.1316000   0.0000000   0.0000000   0.0000000   0.0000000   0.0000000   0.0000000   2.7928460   2.7928460   2.7928460
 AtZNuc=  15.0000000  16.0000000   8.0000000   6.0000000   6.0000000   8.0000000   6.0000000   1.0000000   1.0000000   1.0000000

  Atom        11          12          13          14          15          16          17          18          19          20
 IAtWgt=           1           1          12           1           1           1          12           1           1           1
 AtmWgt=   1.0078250   1.0078250  12.0000000   1.0078250   1.0078250   1.0078250  12.0000000   1.0078250   1.0078250   1.0078250
 NucSpn=           1           1           0           1           1           1           0           1           1           1
 AtZEff=  -1.0000000  -1.0000000  -3.6000000  -1.0000000  -1.0000000  -1.0000000  -3.6000000  -1.0000000  -1.0000000  -1.0000000
 NQMom=    0.0000000   0.0000000   0.0000000   0.0000000   0.0000000   0.0000000   0.0000000   0.0000000   0.0000000   0.0000000
 NMagM=    2.7928460   2.7928460   0.0000000   2.7928460   2.7928460   2.7928460   0.0000000   2.7928460   2.7928460   2.7928460
 AtZNuc=   1.0000000   1.0000000   6.0000000   1.0000000   1.0000000   1.0000000   6.0000000   1.0000000   1.0000000   1.0000000

  Atom        21          22          23          24          25          26          27          28          29          30
 IAtWgt=          14           1          12          12          12          12           1           1          12          12
 AtmWgt=  14.0030740   1.0078250  12.0000000  12.0000000  12.0000000  12.0000000   1.0078250   1.0078250  12.0000000  12.0000000
 NucSpn=           2           1           0           0           0           0           1           1           0           0
 AtZEff=  -4.5500000  -1.0000000  -3.6000000  -3.6000000  -3.6000000  -3.6000000  -1.0000000  -1.0000000  -3.6000000  -3.6000000
 NQMom=    2.0440000   0.0000000   0.0000000   0.0000000   0.0000000   0.0000000   0.0000000   0.0000000   0.0000000   0.0000000
 NMagM=    0.4037610   2.7928460   0.0000000   0.0000000   0.0000000   0.0000000   2.7928460   2.7928460   0.0000000   0.0000000
 AtZNuc=   7.0000000   1.0000000   6.0000000   6.0000000   6.0000000   6.0000000   1.0000000   1.0000000   6.0000000   6.0000000

  Atom        31          32          33          34          35          36          37          38          39          40
 IAtWgt=           1           1           1           1           1           1           1           1           1           1
 AtmWgt=   1.0078250   1.0078250   1.0078250   1.0078250   1.0078250   1.0078250   1.0078250   1.0078250   1.0078250   1.0078250
 NucSpn=           1           1           1           1           1           1           1           1           1           1
 AtZEff=  -1.0000000  -1.0000000  -1.0000000  -1.0000000  -1.0000000  -1.0000000  -1.0000000  -1.0000000  -1.0000000  -1.0000000
 NQMom=    0.0000000   0.0000000   0.0000000   0.0000000   0.0000000   0.0000000   0.0000000   0.0000000   0.0000000   0.0000000
 NMagM=    2.7928460   2.7928460   2.7928460   2.7928460   2.7928460   2.7928460   2.7928460   2.7928460   2.7928460   2.7928460
 AtZNuc=   1.0000000   1.0000000   1.0000000   1.0000000   1.0000000   1.0000000   1.0000000   1.0000000   1.0000000   1.0000000

  Atom        41          42          43          44          45
 IAtWgt=           1           1          16           1           1
 AtmWgt=   1.0078250   1.0078250  15.9949146   1.0078250   1.0078250
 NucSpn=           1           1           0           1           1
 AtZEff=  -1.0000000  -1.0000000  -5.6000000  -1.0000000  -1.0000000
 NQMom=    0.0000000   0.0000000   0.0000000   0.0000000   0.0000000
 NMagM=    2.7928460   2.7928460   0.0000000   2.7928460   2.7928460
 AtZNuc=   1.0000000   1.0000000   8.0000000   1.0000000   1.0000000
 Leave Link  101 at Tue Nov  5 11:43:15 2019, MaxMem=  6815744000 cpu:        12.0
 (Enter /apps/gaussian/g09_d01/g09/l103.exe)

 GradGradGradGradGradGradGradGradGradGradGradGradGradGradGradGradGradGrad
 Berny optimization.
 Initialization pass.
 Cartesian force constants read from checkpoint file:
 "Int1a_sp.chk"
 FormGI is forming the generalized inverse of G from B-inverse, IUseBI=4.
                           ----------------------------
                           !    Initial Parameters    !
                           ! (Angstroms and Degrees)  !
 --------------------------                            --------------------------
 ! Name  Definition              Value          Derivative Info.                !
 --------------------------------------------------------------------------------
 ! R1    R(1,2)                  2.098          D2E/DX2 =    0.1798             !
 ! R2    R(1,3)                  1.6027         D2E/DX2 =    0.354              !
 ! R3    R(1,6)                  1.5025         D2E/DX2 =    0.5577             !
 ! R4    R(1,7)                  1.7864         D2E/DX2 =    0.2398             !
 ! R5    R(2,4)                  1.841          D2E/DX2 =    0.201              !
 ! R6    R(3,5)                  1.4553         D2E/DX2 =    0.299              !
 ! R7    R(4,17)                 1.526          D2E/DX2 =    0.2942             !
 ! R8    R(4,18)                 1.089          D2E/DX2 =    0.3522             !
 ! R9    R(4,19)                 1.09           D2E/DX2 =    0.3474             !
 ! R10   R(5,11)                 1.0925         D2E/DX2 =    0.3469             !
 ! R11   R(5,12)                 1.0901         D2E/DX2 =    0.3459             !
 ! R12   R(5,13)                 1.5103         D2E/DX2 =    0.3091             !
 ! R13   R(6,45)                 1.842          D2E/DX2 =    0.0165             !
 ! R14   R(7,8)                  1.091          D2E/DX2 =    0.3509             !
 ! R15   R(7,9)                  1.0902         D2E/DX2 =    0.3516             !
 ! R16   R(7,10)                 1.0917         D2E/DX2 =    0.3482             !
 ! R17   R(13,14)                1.0922         D2E/DX2 =    0.3455             !
 ! R18   R(13,15)                1.0917         D2E/DX2 =    0.3455             !
 ! R19   R(13,16)                1.0915         D2E/DX2 =    0.3463             !
 ! R20   R(17,20)                1.1023         D2E/DX2 =    0.3176             !
 ! R21   R(17,21)                1.4527         D2E/DX2 =    0.3489             !
 ! R22   R(17,22)                1.0915         D2E/DX2 =    0.3446             !
 ! R23   R(21,23)                1.4747         D2E/DX2 =    0.3272             !
 ! R24   R(21,24)                1.4733         D2E/DX2 =    0.3309             !
 ! R25   R(23,28)                1.0922         D2E/DX2 =    0.3407             !
 ! R26   R(23,29)                1.5281         D2E/DX2 =    0.2915             !
 ! R27   R(23,30)                1.5362         D2E/DX2 =    0.2768             !
 ! R28   R(24,25)                1.5283         D2E/DX2 =    0.2888             !
 ! R29   R(24,26)                1.5338         D2E/DX2 =    0.2755             !
 ! R30   R(24,27)                1.0944         D2E/DX2 =    0.3362             !
 ! R31   R(25,31)                1.0921         D2E/DX2 =    0.3446             !
 ! R32   R(25,32)                1.0934         D2E/DX2 =    0.341              !
 ! R33   R(25,33)                1.0931         D2E/DX2 =    0.342              !
 ! R34   R(26,34)                1.0927         D2E/DX2 =    0.3427             !
 ! R35   R(26,35)                1.0931         D2E/DX2 =    0.3417             !
 ! R36   R(26,36)                1.0938         D2E/DX2 =    0.3402             !
 ! R37   R(29,37)                1.0937         D2E/DX2 =    0.3407             !
 ! R38   R(29,38)                1.0929         D2E/DX2 =    0.3423             !
 ! R39   R(29,39)                1.0946         D2E/DX2 =    0.3387             !
 ! R40   R(30,40)                1.0931         D2E/DX2 =    0.3415             !
 ! R41   R(30,41)                1.0934         D2E/DX2 =    0.341              !
 ! R42   R(30,42)                1.0906         D2E/DX2 =    0.3493             !
 ! R43   R(43,44)                0.9632         D2E/DX2 =    0.5429             !
 ! R44   R(43,45)                0.9736         D2E/DX2 =    0.5055             !
 ! A1    A(2,1,3)              104.2048         D2E/DX2 =    0.0531             !
 ! A2    A(2,1,6)              112.2218         D2E/DX2 =    0.0587             !
 ! A3    A(2,1,7)              109.2503         D2E/DX2 =    0.0638             !
 ! A4    A(3,1,6)              114.3271         D2E/DX2 =    0.0603             !
 ! A5    A(3,1,7)              101.5929         D2E/DX2 =    0.0858             !
 ! A6    A(6,1,7)              114.2948         D2E/DX2 =    0.0621             !
 ! A7    A(1,2,4)              102.2466         D2E/DX2 =    0.4185             !
 ! A8    A(1,3,5)              121.9089         D2E/DX2 =    0.3089             !
 ! A9    A(2,4,17)             111.9711         D2E/DX2 =    0.2403             !
 ! A10   A(2,4,18)             108.3426         D2E/DX2 =    0.0689             !
 ! A11   A(2,4,19)             105.8201         D2E/DX2 =    0.0665             !
 ! A12   A(17,4,18)            112.4862         D2E/DX2 =    0.0764             !
 ! A13   A(17,4,19)            109.6786         D2E/DX2 =    0.0901             !
 ! A14   A(18,4,19)            108.2623         D2E/DX2 =    0.0289             !
 ! A15   A(3,5,11)             109.5269         D2E/DX2 =    0.0706             !
 ! A16   A(3,5,12)             105.3841         D2E/DX2 =    0.0628             !
 ! A17   A(3,5,13)             109.8241         D2E/DX2 =    0.1703             !
 ! A18   A(11,5,12)            108.2443         D2E/DX2 =    0.03               !
 ! A19   A(11,5,13)            112.194          D2E/DX2 =    0.0696             !
 ! A20   A(12,5,13)            111.4257         D2E/DX2 =    0.0719             !
 ! A21   A(1,6,45)             116.7782         D2E/DX2 =    0.1573             !
 ! A22   A(1,7,8)              108.3381         D2E/DX2 =    0.0942             !
 ! A23   A(1,7,9)              110.0168         D2E/DX2 =    0.092              !
 ! A24   A(1,7,10)             108.5321         D2E/DX2 =    0.0933             !
 ! A25   A(8,7,9)              109.8233         D2E/DX2 =    0.0454             !
 ! A26   A(8,7,10)             109.8067         D2E/DX2 =    0.0441             !
 ! A27   A(9,7,10)             110.2868         D2E/DX2 =    0.0454             !
 ! A28   A(5,13,14)            109.3065         D2E/DX2 =    0.097              !
 ! A29   A(5,13,15)            110.2993         D2E/DX2 =    0.1056             !
 ! A30   A(5,13,16)            111.1127         D2E/DX2 =    0.1049             !
 ! A31   A(14,13,15)           108.4329         D2E/DX2 =    0.0477             !
 ! A32   A(14,13,16)           108.5485         D2E/DX2 =    0.048              !
 ! A33   A(15,13,16)           109.0811         D2E/DX2 =    0.051              !
 ! A34   A(4,17,20)            106.6792         D2E/DX2 =    0.0738             !
 ! A35   A(4,17,21)            114.1364         D2E/DX2 =    0.2857             !
 ! A36   A(4,17,22)            107.9132         D2E/DX2 =    0.0781             !
 ! A37   A(20,17,21)           112.2588         D2E/DX2 =    0.0703             !
 ! A38   A(20,17,22)           106.2616         D2E/DX2 =    0.0218             !
 ! A39   A(21,17,22)           109.2115         D2E/DX2 =    0.0678             !
 ! A40   A(17,21,23)           114.1204         D2E/DX2 =    0.1425             !
 ! A41   A(17,21,24)           113.2784         D2E/DX2 =    0.1336             !
 ! A42   A(23,21,24)           115.7912         D2E/DX2 =    0.1438             !
 ! A43   A(21,23,28)           106.2333         D2E/DX2 =    0.0271             !
 ! A44   A(21,23,29)           109.8648         D2E/DX2 =    0.0871             !
 ! A45   A(21,23,30)           115.4576         D2E/DX2 =    0.0869             !
 ! A46   A(28,23,29)           107.6544         D2E/DX2 =    0.0267             !
 ! A47   A(28,23,30)           107.4155         D2E/DX2 =    0.0282             !
 ! A48   A(29,23,30)           109.8579         D2E/DX2 =    0.0935             !
 ! A49   A(21,24,25)           111.5177         D2E/DX2 =    0.0895             !
 ! A50   A(21,24,26)           115.0581         D2E/DX2 =    0.0935             !
 ! A51   A(21,24,27)           105.473          D2E/DX2 =    0.0278             !
 ! A52   A(25,24,26)           109.9457         D2E/DX2 =    0.0925             !
 ! A53   A(25,24,27)           106.8326         D2E/DX2 =    0.028              !
 ! A54   A(26,24,27)           107.5149         D2E/DX2 =    0.0274             !
 ! A55   A(24,25,31)           111.2172         D2E/DX2 =    0.0984             !
 ! A56   A(24,25,32)           111.7162         D2E/DX2 =    0.1001             !
 ! A57   A(24,25,33)           109.7426         D2E/DX2 =    0.0991             !
 ! A58   A(31,25,32)           108.5105         D2E/DX2 =    0.0501             !
 ! A59   A(31,25,33)           108.2029         D2E/DX2 =    0.0483             !
 ! A60   A(32,25,33)           107.3091         D2E/DX2 =    0.0489             !
 ! A61   A(24,26,34)           111.9493         D2E/DX2 =    0.0998             !
 ! A62   A(24,26,35)           109.654          D2E/DX2 =    0.0975             !
 ! A63   A(24,26,36)           110.9026         D2E/DX2 =    0.0983             !
 ! A64   A(34,26,35)           107.8637         D2E/DX2 =    0.0489             !
 ! A65   A(34,26,36)           108.529          D2E/DX2 =    0.0502             !
 ! A66   A(35,26,36)           107.8056         D2E/DX2 =    0.0478             !
 ! A67   A(23,29,37)           110.6592         D2E/DX2 =    0.1017             !
 ! A68   A(23,29,38)           110.7293         D2E/DX2 =    0.1036             !
 ! A69   A(23,29,39)           110.6354         D2E/DX2 =    0.1052             !
 ! A70   A(37,29,38)           108.6007         D2E/DX2 =    0.0497             !
 ! A71   A(37,29,39)           107.9426         D2E/DX2 =    0.0497             !
 ! A72   A(38,29,39)           108.1799         D2E/DX2 =    0.0497             !
 ! A73   A(23,30,40)           109.3437         D2E/DX2 =    0.0968             !
 ! A74   A(23,30,41)           111.4102         D2E/DX2 =    0.1031             !
 ! A75   A(23,30,42)           112.3047         D2E/DX2 =    0.0981             !
 ! A76   A(40,30,41)           107.3293         D2E/DX2 =    0.0484             !
 ! A77   A(40,30,42)           108.0256         D2E/DX2 =    0.0483             !
 ! A78   A(41,30,42)           108.2484         D2E/DX2 =    0.0514             !
 ! A79   A(44,43,45)           104.1127         D2E/DX2 =    0.1444             !
 ! A80   L(6,45,43,5,-1)       177.3434         D2E/DX2 =    0.0461             !
 ! A81   L(6,45,43,5,-2)       174.9145         D2E/DX2 =    0.0152             !
 ! D1    D(3,1,2,4)            148.2669         D2E/DX2 =    0.0799             !
 ! D2    D(6,1,2,4)             24.042          D2E/DX2 =    0.0359             !
 ! D3    D(7,1,2,4)           -103.7962         D2E/DX2 =    0.0335             !
 ! D4    D(2,1,3,5)            -70.478          D2E/DX2 =    0.0435             !
 ! D5    D(6,1,3,5)             52.3808         D2E/DX2 =    0.0302             !
 ! D6    D(7,1,3,5)            175.9998         D2E/DX2 =    0.0239             !
 ! D7    D(2,1,6,45)           133.6382         D2E/DX2 =    0.0368             !
 ! D8    D(3,1,6,45)            15.2398         D2E/DX2 =    0.0394             !
 ! D9    D(7,1,6,45)          -101.2504         D2E/DX2 =    0.0217             !
 ! D10   D(2,1,7,8)             65.3198         D2E/DX2 =    0.0174             !
 ! D11   D(2,1,7,9)            -54.7453         D2E/DX2 =    0.0178             !
 ! D12   D(2,1,7,10)          -175.4966         D2E/DX2 =    0.0169             !
 ! D13   D(3,1,7,8)            175.0124         D2E/DX2 =    0.0194             !
 ! D14   D(3,1,7,9)             54.9473         D2E/DX2 =    0.02               !
 ! D15   D(3,1,7,10)           -65.804          D2E/DX2 =    0.0196             !
 ! D16   D(6,1,7,8)            -61.3466         D2E/DX2 =    0.0179             !
 ! D17   D(6,1,7,9)            178.5883         D2E/DX2 =    0.0176             !
 ! D18   D(6,1,7,10)            57.837          D2E/DX2 =    0.018              !
 ! D19   D(1,2,4,17)          -115.921          D2E/DX2 =    0.0781             !
 ! D20   D(1,2,4,18)             8.707          D2E/DX2 =    0.0288             !
 ! D21   D(1,2,4,19)           124.6249         D2E/DX2 =    0.0416             !
 ! D22   D(1,3,5,11)           -12.2427         D2E/DX2 =    0.0231             !
 ! D23   D(1,3,5,12)          -128.4806         D2E/DX2 =    0.029              !
 ! D24   D(1,3,5,13)           111.3918         D2E/DX2 =    0.0288             !
 ! D25   D(2,4,17,20)         -164.5203         D2E/DX2 =    0.0232             !
 ! D26   D(2,4,17,21)           70.8992         D2E/DX2 =    0.0275             !
 ! D27   D(2,4,17,22)          -50.6877         D2E/DX2 =    0.0181             !
 ! D28   D(18,4,17,20)          73.1859         D2E/DX2 =    0.0171             !
 ! D29   D(18,4,17,21)         -51.3947         D2E/DX2 =    0.0179             !
 ! D30   D(18,4,17,22)        -172.9816         D2E/DX2 =    0.0204             !
 ! D31   D(19,4,17,20)         -47.3598         D2E/DX2 =    0.0162             !
 ! D32   D(19,4,17,21)        -171.9404         D2E/DX2 =    0.0207             !
 ! D33   D(19,4,17,22)          66.4728         D2E/DX2 =    0.0164             !
 ! D34   D(3,5,13,14)          176.0903         D2E/DX2 =    0.0168             !
 ! D35   D(3,5,13,15)           56.9595         D2E/DX2 =    0.0177             !
 ! D36   D(3,5,13,16)          -64.1355         D2E/DX2 =    0.0171             !
 ! D37   D(11,5,13,14)         -61.8496         D2E/DX2 =    0.0158             !
 ! D38   D(11,5,13,15)         179.0197         D2E/DX2 =    0.0157             !
 ! D39   D(11,5,13,16)          57.9246         D2E/DX2 =    0.0169             !
 ! D40   D(12,5,13,14)          59.7053         D2E/DX2 =    0.0154             !
 ! D41   D(12,5,13,15)         -59.4254         D2E/DX2 =    0.0165             !
 ! D42   D(12,5,13,16)         179.4795         D2E/DX2 =    0.0153             !
 ! D43   D(1,6,43,44)            1.9369         D2E/DX2 =    0.0077             !
 ! D44   D(4,17,21,23)        -147.7073         D2E/DX2 =    0.0271             !
 ! D45   D(4,17,21,24)          76.9281         D2E/DX2 =    0.0305             !
 ! D46   D(20,17,21,23)         90.7436         D2E/DX2 =    0.0263             !
 ! D47   D(20,17,21,24)        -44.621          D2E/DX2 =    0.024              !
 ! D48   D(22,17,21,23)        -26.8396         D2E/DX2 =    0.0248             !
 ! D49   D(22,17,21,24)       -162.2042         D2E/DX2 =    0.0283             !
 ! D50   D(17,21,23,28)       -160.8196         D2E/DX2 =    0.0167             !
 ! D51   D(17,21,23,29)         83.0097         D2E/DX2 =    0.0253             !
 ! D52   D(17,21,23,30)        -41.8818         D2E/DX2 =    0.0249             !
 ! D53   D(24,21,23,28)        -26.6107         D2E/DX2 =    0.0153             !
 ! D54   D(24,21,23,29)       -142.7814         D2E/DX2 =    0.0236             !
 ! D55   D(24,21,23,30)         92.3271         D2E/DX2 =    0.028              !
 ! D56   D(17,21,24,25)       -155.9303         D2E/DX2 =    0.027              !
 ! D57   D(17,21,24,26)         77.975          D2E/DX2 =    0.0256             !
 ! D58   D(17,21,24,27)        -40.3284         D2E/DX2 =    0.0185             !
 ! D59   D(23,21,24,25)         69.4833         D2E/DX2 =    0.0243             !
 ! D60   D(23,21,24,26)        -56.6114         D2E/DX2 =    0.0236             !
 ! D61   D(23,21,24,27)       -174.9147         D2E/DX2 =    0.0185             !
 ! D62   D(21,23,29,37)       -179.2446         D2E/DX2 =    0.0198             !
 ! D63   D(21,23,29,38)         60.2789         D2E/DX2 =    0.0192             !
 ! D64   D(21,23,29,39)        -59.6541         D2E/DX2 =    0.0192             !
 ! D65   D(28,23,29,37)         65.4835         D2E/DX2 =    0.0133             !
 ! D66   D(28,23,29,38)        -54.9931         D2E/DX2 =    0.0134             !
 ! D67   D(28,23,29,39)       -174.926          D2E/DX2 =    0.0131             !
 ! D68   D(30,23,29,37)        -51.1893         D2E/DX2 =    0.0174             !
 ! D69   D(30,23,29,38)       -171.6659         D2E/DX2 =    0.0182             !
 ! D70   D(30,23,29,39)         68.4012         D2E/DX2 =    0.0177             !
 ! D71   D(21,23,30,40)       -168.9351         D2E/DX2 =    0.0182             !
 ! D72   D(21,23,30,41)         72.5928         D2E/DX2 =    0.018              !
 ! D73   D(21,23,30,42)        -49.035          D2E/DX2 =    0.0167             !
 ! D74   D(28,23,30,40)        -50.6527         D2E/DX2 =    0.0131             !
 ! D75   D(28,23,30,41)       -169.1247         D2E/DX2 =    0.0133             !
 ! D76   D(28,23,30,42)         69.2474         D2E/DX2 =    0.013              !
 ! D77   D(29,23,30,40)         66.1699         D2E/DX2 =    0.0166             !
 ! D78   D(29,23,30,41)        -52.3022         D2E/DX2 =    0.0169             !
 ! D79   D(29,23,30,42)       -173.93           D2E/DX2 =    0.0169             !
 ! D80   D(21,24,25,31)         51.5149         D2E/DX2 =    0.0191             !
 ! D81   D(21,24,25,32)        -69.8979         D2E/DX2 =    0.0191             !
 ! D82   D(21,24,25,33)        171.2079         D2E/DX2 =    0.0195             !
 ! D83   D(26,24,25,31)       -179.6268         D2E/DX2 =    0.0184             !
 ! D84   D(26,24,25,32)         58.9605         D2E/DX2 =    0.0177             !
 ! D85   D(26,24,25,33)        -59.9338         D2E/DX2 =    0.0175             !
 ! D86   D(27,24,25,31)        -63.2496         D2E/DX2 =    0.0137             !
 ! D87   D(27,24,25,32)        175.3377         D2E/DX2 =    0.0132             !
 ! D88   D(27,24,25,33)         56.4434         D2E/DX2 =    0.0134             !
 ! D89   D(21,24,26,34)        -52.9639         D2E/DX2 =    0.0182             !
 ! D90   D(21,24,26,35)       -172.6412         D2E/DX2 =    0.0185             !
 ! D91   D(21,24,26,36)         68.4131         D2E/DX2 =    0.0184             !
 ! D92   D(25,24,26,34)       -179.8629         D2E/DX2 =    0.0177             !
 ! D93   D(25,24,26,35)         60.4598         D2E/DX2 =    0.0172             !
 ! D94   D(25,24,26,36)        -58.4859         D2E/DX2 =    0.0176             !
 ! D95   D(27,24,26,34)         64.1892         D2E/DX2 =    0.0134             !
 ! D96   D(27,24,26,35)        -55.4882         D2E/DX2 =    0.0135             !
 ! D97   D(27,24,26,36)       -174.4339         D2E/DX2 =    0.0138             !
 --------------------------------------------------------------------------------
 Trust Radius=3.00D-01 FncErr=1.00D-07 GrdErr=1.00D-06
 Number of steps in this run=    232 maximum allowed number of steps=    270.
 GradGradGradGradGradGradGradGradGradGradGradGradGradGradGradGradGradGrad

 Leave Link  103 at Tue Nov  5 11:43:16 2019, MaxMem=  6815744000 cpu:         1.0
 (Enter /apps/gaussian/g09_d01/g09/l202.exe)
                          Input orientation:                          
 ---------------------------------------------------------------------
 Center     Atomic      Atomic             Coordinates (Angstroms)
 Number     Number       Type             X           Y           Z
 ---------------------------------------------------------------------
      1         15           0        2.202685    0.130132    0.514176
      2         16           0        0.890651    1.734803    0.838310
      3          8           0        2.750806    0.364611   -0.973566
      4          6           0       -0.366195    0.991278    1.959294
      5          6           0        1.903409    0.184375   -2.142839
      6          8           0        1.536842   -1.199970    0.726006
      7          6           0        3.682549    0.374083    1.484582
      8          1           0        3.412456    0.325732    2.540512
      9          1           0        4.120497    1.346628    1.259161
     10          1           0        4.388952   -0.423472    1.246553
     11          1           0        0.980365   -0.321566   -1.850376
     12          1           0        2.460978   -0.478510   -2.804662
     13          6           0        1.639482    1.520770   -2.795023
     14          1           0        1.061739    1.368571   -3.709298
     15          1           0        2.581178    2.006171   -3.058536
     16          1           0        1.073183    2.177010   -2.131628
     17          6           0       -1.748037    0.940501    1.313905
     18          1           0       -0.013141    0.007663    2.265543
     19          1           0       -0.395708    1.633015    2.839854
     20          1           0       -2.469963    0.755770    2.126130
     21          7           0       -1.866965   -0.031039    0.240464
     22          1           0       -1.973594    1.935025    0.924830
     23          6           0       -2.800095    0.365366   -0.830511
     24          6           0       -1.995212   -1.417658    0.721683
     25          6           0       -1.534189   -2.422231   -0.333805
     26          6           0       -3.388754   -1.800780    1.235252
     27          1           0       -1.300008   -1.500262    1.562831
     28          1           0       -3.059847   -0.551598   -1.364033
     29          6           0       -2.092988    1.291982   -1.818633
     30          6           0       -4.112159    1.009835   -0.358078
     31          1           0       -0.539680   -2.172376   -0.709494
     32          1           0       -2.224557   -2.464826   -1.180604
     33          1           0       -1.492702   -3.423569    0.102682
     34          1           0       -3.751913   -1.100914    1.991701
     35          1           0       -3.353212   -2.795129    1.687931
     36          1           0       -4.111849   -1.832277    0.415162
     37          1           0       -2.777747    1.604914   -2.611894
     38          1           0       -1.236713    0.789373   -2.275433
     39          1           0       -1.730331    2.191817   -1.311825
     40          1           0       -4.804085    1.082277   -1.201188
     41          1           0       -3.946801    2.023979    0.015587
     42          1           0       -4.597922    0.431053    0.428408
     43          8           0        2.065427   -3.127292   -1.252956
     44          1           0        2.670829   -2.641079   -1.822911
     45          1           0        1.826700   -2.487171   -0.559262
 ---------------------------------------------------------------------
                    Distance matrix (angstroms):
                    1          2          3          4          5
     1  P    0.000000
     2  S    2.097967   0.000000
     3  O    1.602746   2.936068   0.000000
     4  C    3.070681   1.840950   4.325515   0.000000
     5  C    2.674367   3.509523   1.455255   4.757068   0.000000
     6  O    1.502461   3.007169   2.609630   3.153429   3.206409
     7  C    1.786391   3.172368   2.628825   4.122937   4.044689
     8  H    2.368088   3.352979   3.576036   3.880588   4.922497
     9  H    2.390160   3.280198   2.797405   4.554873   4.223732
    10  H    2.371206   4.130729   2.869412   5.012080   4.246809
    11  H    2.699853   3.386109   2.091435   4.248573   1.092484
    12  H    3.384058   4.542679   2.036607   5.731358   1.090096
    13  C    3.633438   3.715867   2.426819   5.187160   1.510282
    14  H    4.546782   4.565537   3.368251   5.857839   2.136474
    15  H    4.053030   4.256398   2.659059   5.907252   2.148677
    16  H    3.530689   3.008221   2.727695   4.495933   2.158702
    17  C    4.111505   2.796388   5.079741   1.525973   5.084670
    18  H    2.827042   2.415957   4.273013   1.089006   4.810221
    19  H    3.797247   2.381441   5.104074   1.089992   5.675538
    20  H    4.982315   3.729707   6.084206   2.123473   6.138158
    21  N    4.082028   3.328674   4.791056   2.500364   4.465675
    22  H    4.568105   2.872538   5.328233   2.131785   5.244666
    23  C    5.185685   4.275737   5.552745   3.754817   4.886503
    24  C    4.478957   4.275491   5.345563   3.160435   5.096199
    25  C    4.604113   4.953245   5.151405   4.274875   4.678042
    26  C    5.959242   5.565180   6.874737   4.178001   6.584781
    27  H    4.003339   3.973609   5.130318   2.690161   5.179949
    28  H    5.629091   5.067976   5.895388   4.547607   5.077608
    29  C    5.024411   4.019644   5.003648   4.164729   4.159698
    30  C    6.435213   5.194712   6.920652   4.404861   6.328808
    31  H    3.784109   4.439324   4.163333   4.142612   3.684758
    32  H    5.404310   5.605124   5.727375   5.025647   4.998426
    33  H    5.143346   5.729775   5.789299   4.920051   5.439963
    34  H    6.257459   5.561025   7.295610   3.980126   7.122433
    35  H    6.387711   6.265183   7.370656   4.830403   7.154321
    36  H    6.613184   6.158581   7.338319   4.938292   6.840584
    37  H    6.062343   5.037650   5.898082   5.204603   4.914383
    38  H    4.477274   3.887790   4.216111   4.327988   3.200621
    39  H    4.801400   3.420744   4.851154   3.741975   4.233730
    40  H    7.276255   6.084025   7.592315   5.449018   6.832526
    41  H    6.453791   4.915428   6.970643   4.202999   6.501377
    42  H    6.807802   5.656166   7.481561   4.534862   6.995675
    43  O    3.708424   5.421574   3.569481   5.761419   3.432969
    44  H    3.655236   5.422128   3.124413   6.059918   2.945246
    45  H    2.853753   4.544717   3.026265   4.821982   3.106567
                    6          7          8          9         10
     6  O    0.000000
     7  C    2.767153   0.000000
     8  H    3.022933   1.090998   0.000000
     9  H    3.666700   1.090164   1.784772   0.000000
    10  H    3.001408   1.091677   1.785828   1.790385   0.000000
    11  H    2.778310   4.348295   5.061023   4.723613   4.606498
    12  H    3.720235   4.540569   5.488443   4.753924   4.486921
    13  C    4.450911   4.878937   5.747998   4.756277   5.260608
    14  H    5.147334   5.902036   6.758217   5.834558   6.232353
    15  H    5.068800   4.951429   5.904594   4.631091   5.263555
    16  H    4.448039   4.810022   5.543313   4.633909   5.400828
    17  C    3.964552   5.462712   5.339774   5.882825   6.287098
    18  H    2.496197   3.795034   3.451302   4.460112   4.539013
    19  H    4.028512   4.478152   4.037413   4.793404   5.446166
    20  H    4.673303   6.197634   5.912656   6.673449   7.014912
    21  N    3.631536   5.701671   5.769731   6.227794   6.348442
    22  H    4.710720   5.894218   5.848913   6.131553   6.793233
    23  C    4.866421   6.883633   7.068321   7.295492   7.524551
    24  C    3.538759   6.002443   5.965771   6.732909   6.482396
    25  C    3.471074   6.191951   6.346833   6.979779   6.447959
    26  C    4.988167   7.402400   7.244461   8.142211   7.898723
    27  H    2.972906   5.324018   5.147566   6.130162   5.798602
    28  H    5.090992   7.377763   7.609591   7.876658   7.894060
    29  C    5.085340   6.716441   7.088419   6.934205   7.372496
    30  C    6.161955   8.034739   8.092567   8.396756   8.769156
    31  H    2.705213   5.396817   5.694072   6.162487   5.583565
    32  H    4.402630   7.075063   7.308203   7.793545   7.334625
    33  H    3.809339   6.566203   6.637834   7.456556   6.700961
    34  H    5.439000   7.596315   7.325619   8.276588   8.202918
    35  H    5.232826   7.719274   7.499395   8.555368   8.109296
    36  H    5.692464   8.170944   8.111059   8.865060   8.656764
    37  H    6.133892   7.747998   8.154888   7.914389   8.388298
    38  H    4.545188   6.205588   6.709923   6.442328   6.747110
    39  H    5.131413   6.357933   6.691115   6.446433   7.129562
    40  H    7.009286   8.929605   9.060034   9.261283   9.631752
    41  H    6.400694   7.942737   7.963538   8.190640   8.774399
    42  H    6.354851   8.347750   8.284819   8.805638   9.064407
    43  O    2.812519   4.729569   5.303608   5.527206   4.353959
    44  H    3.140016   4.588495   5.328362   5.244283   4.158286
    45  H    1.841960   3.975958   4.476119   4.823503   3.752993
                   11         12         13         14         15
    11  H    0.000000
    12  H    1.768476   0.000000
    13  C    2.172785   2.161497   0.000000
    14  H    2.513717   2.487557   1.092177   0.000000
    15  H    3.072558   2.500508   1.091716   1.771643   0.000000
    16  H    2.516069   3.070951   1.091530   1.772779   1.778311
    17  C    4.364592   6.057392   5.356799   5.771539   6.244678
    18  H    4.246909   5.662562   5.534436   6.221428   6.250627
    19  H    5.264240   6.669315   5.992198   6.714572   6.617560
    20  H    5.373827   7.081691   6.456819   6.848406   7.345631
    21  N    3.544475   5.310755   4.890549   5.112420   5.900813
    22  H    4.638949   6.276918   5.202234   5.568596   6.051299
    23  C    3.975409   5.682279   4.990402   4.920122   6.050986
    24  C    4.083010   5.759752   5.849153   6.061486   6.852445
    25  C    3.610507   5.083753   5.628236   5.701138   6.631074
    26  C    5.549629   7.231091   7.249757   7.368870   8.280675
    27  H    4.270762   5.853545   6.062849   6.450069   6.979664
    28  H    4.075875   5.706160   5.331617   5.116130   6.421424
    29  C    3.471317   4.984526   3.864843   3.678693   4.888276
    30  C    5.471141   7.169873   6.267466   6.174835   7.286008
    31  H    2.652856   4.032724   4.768387   4.909346   5.719966
    32  H    3.913270   5.342027   5.781187   5.647031   6.827263
    33  H    4.421868   5.723426   6.530984   6.634829   7.488115
    34  H    6.145192   7.873531   7.671577   7.859452   8.675650
    35  H    6.117027   7.704215   7.978149   8.121470   8.988794
    36  H    5.774561   7.443252   7.390942   7.350007   8.461493
    37  H    4.291228   5.641104   4.421824   4.000226   5.392454
    38  H    2.516008   3.944684   3.012875   2.770257   4.082908
    39  H    3.735640   5.189054   3.742435   3.771110   4.655596
    40  H    5.987661   7.601863   6.652229   6.385959   7.671077
    41  H    5.767180   7.434775   6.273699   6.276129   7.215611
    42  H    6.072609   7.817168   7.105153   7.073281   8.135062
    43  O    3.066980   3.095205   4.915677   5.220515   5.466128
    44  H    2.870289   2.384235   4.396551   4.714330   4.809547
    45  H    2.659530   3.078774   4.593176   5.037324   5.196704
                   16         17         18         19         20
    16  H    0.000000
    17  C    4.621682   0.000000
    18  H    5.022080   2.187617   0.000000
    19  H    5.212409   2.153344   1.765775   0.000000
    20  H    5.718594   1.102276   2.571979   2.362518   0.000000
    21  N    4.375703   1.452691   2.745744   3.419138   2.130355
    22  H    4.322424   1.091482   3.058695   2.499650   1.755034
    23  C    4.469591   2.456853   4.180983   4.567230   3.000522
    24  C    5.520695   2.443918   2.888538   4.043719   2.630903
    25  C    5.584226   3.750819   3.869701   5.273829   4.126336
    26  C    6.860582   3.195741   3.965694   4.829495   2.858984
    27  H    5.727425   2.493997   2.103253   3.502281   2.603034
    28  H    5.011631   3.334450   4.771689   5.435332   3.773382
    29  C    3.302405   3.171014   4.759804   4.969765   3.998849
    30  C    5.603173   2.896447   4.968872   4.942381   2.988753
    31  H    4.851902   3.904392   3.725676   5.205727   4.510078
    32  H    5.772883   4.248047   4.783251   6.025037   4.622441
    33  H    6.553045   4.536228   4.317455   5.853592   4.745130
    34  H    7.143401   2.939779   3.909264   4.411104   2.260253
    35  H    7.674906   4.083064   4.398336   5.448139   3.685246
    36  H    7.031720   3.752818   4.858879   5.630016   3.510155
    37  H    3.922704   4.112621   5.829550   5.949492   4.823344
    38  H    2.698488   3.628725   4.767459   5.252160   4.571192
    39  H    2.920957   2.908705   4.529551   4.396580   3.798529
    40  H    6.050326   3.960458   6.010505   6.005591   4.077472
    41  H    5.462068   2.773827   4.959991   4.554074   2.871201
    42  H    6.462475   3.027455   4.957272   4.991831   2.741516
    43  O    5.467379   6.138259   5.150555   6.743056   6.860478
    44  H    5.085446   6.495668   5.561923   7.029431   7.318556
    45  H    4.979428   5.294944   4.193892   5.785241   6.015755
                   21         22         23         24         25
    21  N    0.000000
    22  H    2.084499   0.000000
    23  C    1.474739   2.495627   0.000000
    24  C    1.473340   3.358901   2.497262   0.000000
    25  C    2.481597   4.556634   3.101602   1.528321   0.000000
    26  C    2.537209   4.006904   3.050588   1.533784   2.507500
    27  H    2.056383   3.558365   3.385102   1.094377   2.121814
    28  H    2.066000   3.549948   1.092218   2.496741   2.624551
    29  C    2.457916   2.820346   1.528072   3.715497   4.038855
    30  C    2.546089   2.659941   1.536243   3.397068   4.292505
    31  H    2.692476   4.647351   3.400626   2.176337   1.092070
    32  H    2.840884   4.884109   2.909261   2.183543   1.093385
    33  H    3.415891   5.442583   4.115356   2.158555   1.093124
    34  H    2.786483   3.676623   3.319761   2.190723   3.474500
    35  H    3.456051   4.985983   4.078875   2.162227   2.745053
    36  H    2.883484   4.361704   2.846407   2.178535   2.748332
    37  H    3.412010   3.641985   2.170323   4.567388   4.791035
    38  H    2.720300   3.478103   2.170655   3.798554   3.764679
    39  H    2.714656   2.264453   2.170710   4.151340   4.720639
    40  H    3.456083   3.641265   2.160402   4.223372   4.870949
    41  H    2.932471   2.174438   2.186735   4.018971   5.070656
    42  H    2.776144   3.065201   2.195762   3.205907   4.255427
    43  O    5.223101   6.832532   6.004201   4.828130   3.781426
    44  H    5.626846   7.075413   6.320964   5.453775   4.466263
    45  H    4.507250   6.016691   5.442222   4.170335   3.369068
                   26         27         28         29         30
    26  C    0.000000
    27  H    2.135528   0.000000
    28  H    2.902571   3.544506   0.000000
    29  C    4.535461   4.456427   2.130790   0.000000
    30  C    3.310827   4.230682   2.134802   2.507963   0.000000
    31  H    3.469488   2.488633   3.067016   3.955342   4.797142
    32  H    2.762730   3.051493   2.095661   3.812872   4.038918
    33  H    2.740652   2.422452   3.585444   5.127203   5.170002
    34  H    1.092662   2.520961   3.470108   4.795480   3.179072
    35  H    1.093120   2.430633   3.799208   5.530700   4.386332
    36  H    1.093804   3.055131   2.431539   4.338967   2.945421
    37  H    5.174226   5.408711   2.507445   1.093656   2.685975
    38  H    4.864677   4.469755   2.439809   1.092926   3.463097
    39  H    5.017848   4.698965   3.049043   1.094567   2.824857
    40  H    4.031305   5.156342   2.395502   2.788416   1.093089
    41  H    4.053120   4.671161   3.053463   2.708654   1.093369
    42  H    2.663487   3.986619   2.558148   3.473483   1.090649
    43  O    6.139944   4.679961   5.737157   6.094455   7.488604
    44  H    6.839372   5.341560   6.116955   6.177615   7.841163
    45  H    5.558091   3.905582   5.317183   5.588556   6.894894
                   31         32         33         34         35
    31  H    0.000000
    32  H    1.773776   0.000000
    33  H    1.770131   1.761142   0.000000
    34  H    4.331619   3.775790   3.750620   0.000000
    35  H    3.748524   3.100235   2.523777   1.766806   0.000000
    36  H    3.760440   2.551168   3.080549   1.774802   1.767076
    37  H    4.784975   4.349412   5.857124   5.428037   6.179000
    38  H    3.421985   3.572715   4.844568   5.301683   5.747737
    39  H    4.563621   4.684635   5.795676   5.083518   6.041681
    40  H    5.386992   4.385924   5.741775   4.008482   5.048398
    41  H    5.453770   4.954429   5.975447   3.702427   5.135454
    42  H    4.953988   4.075279   4.960504   2.346602   3.680211
    43  O    2.827330   4.341435   3.819138   6.962431   6.174204
    44  H    3.430269   4.940488   4.653514   7.627252   6.974153
    45  H    2.391949   4.098688   3.511900   6.288881   5.654750
                   36         37         38         39         40
    36  H    0.000000
    37  H    4.770448   0.000000
    38  H    4.730619   1.775696   0.000000
    39  H    4.984721   1.769666   1.771736   0.000000
    40  H    3.403880   2.523745   3.737102   3.269753   0.000000
    41  H    3.880414   2.906194   3.757339   2.589002   1.761329
    42  H    2.314974   3.732884   4.328611   3.788374   1.766969
    43  O    6.528278   6.906288   5.223969   6.534842   8.056882
    44  H    7.188035   6.952548   5.219355   6.556546   8.374023
    45  H    6.053491   6.493025   4.802654   5.925516   7.557799
                   41         42         43         44         45
    41  H    0.000000
    42  H    1.769687   0.000000
    43  O    8.018209   7.738800   0.000000
    44  H    8.302762   8.206167   0.963205   0.000000
    45  H    7.349437   7.125116   0.973631   1.527433   0.000000
 Stoichiometry    C11H28NO3PS
 Framework group  C1[X(C11H28NO3PS)]
 Deg. of freedom   129
 Full point group                 C1      NOp   1
 RotChk:  IX=0 Diff= 1.24D-15
 Largest Abelian subgroup         C1      NOp   1
 Largest concise Abelian subgroup C1      NOp   1
                         Standard orientation:                         
 ---------------------------------------------------------------------
 Center     Atomic      Atomic             Coordinates (Angstroms)
 Number     Number       Type             X           Y           Z
 ---------------------------------------------------------------------
      1         15           0        2.153620    0.028797   -0.709797
      2         16           0        0.881641   -1.593565   -1.098997
      3          8           0        2.816550   -0.322156    0.706589
      4          6           0       -0.479831   -0.802335   -2.052646
      5          6           0        2.050176   -0.291408    1.943316
      6          8           0        1.425523    1.342610   -0.743848
      7          6           0        3.567144   -0.056584   -1.798766
      8          1           0        3.219527    0.080290   -2.823805
      9          1           0        4.055893   -1.026080   -1.700484
     10          1           0        4.259042    0.744810   -1.532680
     11          1           0        1.090298    0.199215    1.765988
     12          1           0        2.629462    0.329166    2.627148
     13          6           0        1.883782   -1.694128    2.477771
     14          1           0        1.368695   -1.655165    3.440069
     15          1           0        2.859390   -2.160749    2.627092
     16          1           0        1.295435   -2.308325    1.793630
     17          6           0       -1.812119   -0.873805   -1.312042
     18          1           0       -0.186478    0.220490   -2.284398
     19          1           0       -0.549470   -1.357925   -2.987821
     20          1           0       -2.597415   -0.644298   -2.050723
     21          7           0       -1.888602   -0.015104   -0.142815
     22          1           0       -1.971985   -1.909790   -1.007885
     23          6           0       -2.726276   -0.552205    0.945615
     24          6           0       -2.102524    1.404110   -0.475681
     25          6           0       -1.603503    2.322754    0.639145
     26          6           0       -3.542852    1.773067   -0.852272
     27          1           0       -1.473725    1.596830   -1.350399
     28          1           0       -2.980286    0.297502    1.583123
     29          6           0       -1.915603   -1.536917    1.787135
     30          6           0       -4.044485   -1.205529    0.503421
     31          1           0       -0.575809    2.082004    0.919325
     32          1           0       -2.231693    2.254217    1.531429
     33          1           0       -1.630789    3.361977    0.301224
     34          1           0       -3.933875    1.133241   -1.647025
     35          1           0       -3.576980    2.806623   -1.206546
     36          1           0       -4.205189    1.694606    0.014654
     37          1           0       -2.528966   -1.953674    2.590990
     38          1           0       -1.047568   -1.043129    2.231181
     39          1           0       -1.557722   -2.367632    1.170765
     40          1           0       -4.670250   -1.388185    1.380860
     41          1           0       -3.869366   -2.171243    0.021564
     42          1           0       -4.607077   -0.576259   -0.187248
     43          8           0        2.024848    3.093884    1.373724
     44          1           0        2.687550    2.582540    1.850292
     45          1           0        1.760193    2.512940    0.638593
 ---------------------------------------------------------------------
 Rotational constants (GHZ):      0.4703857      0.2517781      0.2410853
 Leave Link  202 at Tue Nov  5 11:43:16 2019, MaxMem=  6815744000 cpu:         0.1
 (Enter /apps/gaussian/g09_d01/g09/l301.exe)
 Standard basis: 6-311++G(d,p) (5D, 7F)
 Ernie: Thresh=  0.10000D-02 Tol=  0.10000D-05 Strict=F.
 There are   603 symmetry adapted cartesian basis functions of A   symmetry.
 There are   586 symmetry adapted basis functions of A   symmetry.
   586 basis functions,   892 primitive gaussians,   603 cartesian basis functions
    78 alpha electrons       78 beta electrons
       nuclear repulsion energy      1774.4348867999 Hartrees.
 IExCor= 4336 DFT=T Ex+Corr=M062X ExCW=0 ScaHFX=  0.540000
 ScaDFX=  1.000000  1.000000  1.000000  1.000000 ScalE2=  1.000000  1.000000
 IRadAn=      5 IRanWt=     -1 IRanGd=            0 ICorTp=0 IEmpDi=  4
 NAtoms=   45 NActive=   45 NUniq=   45 SFac= 1.00D+00 NAtFMM=   60 NAOKFM=F Big=F
 Integral buffers will be    131072 words long.
 Raffenetti 2 integral format.
 Two-electron integral symmetry is turned on.
 ------------------------------------------------------------------------------
 Polarizable Continuum Model (PCM)
 =================================
 Model                : PCM (using non-symmetric T matrix).
 Atomic radii         : SMD-Coulomb.
 Polarization charges : Total charges.
 Charge compensation  : None.
 Solution method      : On-the-fly selection.
 Cavity type          : VdW (van der Waals Surface) (Alpha=1.000).
 Cavity algorithm     : GePol (No added spheres)
                        Default sphere list used, NSphG=   45.
                        Lebedev-Laikov grids with approx.  5.0 points / Ang**2.
                        Smoothing algorithm: Karplus/York (Gamma=1.0000).
                        Polarization charges: spherical gaussians, with
                                              point-specific exponents (IZeta= 3).
                        Self-potential: point-specific (ISelfS= 7).
                        Self-field    : sphere-specific E.n sum rule (ISelfD= 2).
 1st derivatives      : Analytical E(r).r(x)/FMM algorithm (CHGder, D1EAlg=3).
                        Cavity 1st derivative terms included.
 Solvent              : Water, Eps=  78.355300 Eps(inf)=   1.777849
 ------------------------------------------------------------------------------
 GePol: Number of generator spheres                  =      45
 GePol: Total number of spheres                      =      45
 GePol: Number of exposed spheres                    =      45 (100.00%)
 GePol: Number of points                             =    3017
 GePol: Average weight of points                     =       0.12
 GePol: Minimum weight of points                     =   0.93D-09
 GePol: Maximum weight of points                     =    0.21991
 GePol: Number of points with low weight             =     193
 GePol: Fraction of low-weight points (<1% of avg)   =       6.40%
 GePol: Cavity surface area                          =    347.616 Ang**2
 GePol: Cavity volume                                =    318.216 Ang**3
 ------------------------------------------------------------------------------
 Atomic radii for non-electrostatic terms: SMD-CDS.
 ------------------------------------------------------------------------------
 PCM non-electrostatic energy =         0.0118964348 Hartrees.
 Nuclear repulsion after PCM non-electrostatic terms =     1774.4467832347 Hartrees.
 Leave Link  301 at Tue Nov  5 11:43:16 2019, MaxMem=  6815744000 cpu:         1.6
 (Enter /apps/gaussian/g09_d01/g09/l302.exe)
 NPDir=0 NMtPBC=     1 NCelOv=     1 NCel=       1 NClECP=     1 NCelD=      1
         NCelK=      1 NCelE2=     1 NClLst=     1 CellRange=     0.0.
 One-electron integrals computed using PRISM.
 NBasis=   586 RedAO= T EigKep=  4.40D-06  NBF=   586
 NBsUse=   586 1.00D-06 EigRej= -1.00D+00 NBFU=   586
 Precomputing XC quadrature grid using
 IXCGrd= 4 IRadAn=           5 IRanWt=          -1 IRanGd=           0 AccXCQ= 0.00D+00.
 Generated NRdTot=       0 NPtTot=           0 NUsed=           0 NTot=          32
 NSgBfM=   599   599   599   599   599 MxSgAt=    45 MxSgA2=    45.
 Leave Link  302 at Tue Nov  5 11:43:17 2019, MaxMem=  6815744000 cpu:        24.2
 (Enter /apps/gaussian/g09_d01/g09/l303.exe)
 DipDrv:  MaxL=1.
 Leave Link  303 at Tue Nov  5 11:43:17 2019, MaxMem=  6815744000 cpu:         2.3
 (Enter /apps/gaussian/g09_d01/g09/l401.exe)
 Initial guess from the checkpoint file:  "Int1a_sp.chk"
 B after Tr=     0.000000    0.000000    0.000000
         Rot=    1.000000    0.000000    0.000000    0.000000 Ang=   0.00 deg.
 Guess basis will be translated and rotated to current coordinates.
 JPrj=2 DoOrth=T DoCkMO=T.
 Leave Link  401 at Tue Nov  5 11:43:19 2019, MaxMem=  6815744000 cpu:        25.8
 (Enter /apps/gaussian/g09_d01/g09/l502.exe)
 Closed shell SCF:
 Using DIIS extrapolation, IDIIS=  1040.
 Integral symmetry usage will be decided dynamically.
 IVT=     1123575 IEndB=     1123575 NGot=  6815744000 MDV=  6815001278
 LenX=  6815001278 LenY=  6814637066
 Requested convergence on RMS density matrix=1.00D-09 within 128 cycles.
 Requested convergence on MAX density matrix=1.00D-07.
 Requested convergence on             energy=1.00D-07.
 No special actions if energy rises.
 Fock matrices will be formed incrementally for  20 cycles.

 Cycle   1  Pass 1  IDiag  1:
 FoFJK:  IHMeth= 1 ICntrl=       0 DoSepK=F KAlg= 0 I1Cent=   0 FoldK=F
 IRaf= 870000000 NMat=   1 IRICut=       1 DoRegI=T DoRafI=F ISym2E= 0.
 FoFCou: FMM=F IPFlag=           0 FMFlag=      100000 FMFlg1=           0
         NFxFlg=           0 DoJE=F BraDBF=F KetDBF=F FulRan=T
         wScrn=  0.000000 ICntrl=       0 IOpCl=  0 I1Cent=           0 NGrid=           0
         NMat0=    1 NMatS0=      1 NMatT0=    0 NMatD0=    1 NMtDS0=    0 NMtDT0=    0
 Symmetry not used in FoFCou.
 Inv3:  Mode=1 IEnd=    27306867.
 Iteration    1 A*A^-1 deviation from unit magnitude is 6.66D-15 for    372.
 Iteration    1 A*A^-1 deviation from orthogonality  is 5.03D-15 for   2298    212.
 Iteration    1 A^-1*A deviation from unit magnitude is 5.66D-15 for   3017.
 Iteration    1 A^-1*A deviation from orthogonality  is 2.06D-09 for   2389   2381.
 Iteration    2 A*A^-1 deviation from unit magnitude is 8.22D-15 for    189.
 Iteration    2 A*A^-1 deviation from orthogonality  is 6.15D-15 for   1630    188.
 Iteration    2 A^-1*A deviation from unit magnitude is 1.55D-15 for   2827.
 Iteration    2 A^-1*A deviation from orthogonality  is 4.29D-16 for   3012   2907.
 E= -1455.95746479512    
 DIIS: error= 3.61D-10 at cycle   1 NSaved=   1.
 NSaved= 1 IEnMin= 1 EnMin= -1455.95746479512     IErMin= 1 ErrMin= 3.61D-10
 ErrMax= 3.61D-10  0.00D+00 EMaxC= 1.00D-01 BMatC= 1.39D-16 BMatP= 1.39D-16
 IDIUse=1 WtCom= 1.00D+00 WtEn= 0.00D+00
 Coeff-Com:  0.100D+01
 Coeff:      0.100D+01
 Gap=     0.261 Goal=   None    Shift=    0.000
 RMSDP=4.20D-10 MaxDP=8.44D-08              OVMax= 3.20D-09

 Error on total polarization charges =  0.06852
 SCF Done:  E(RM062X) =  -1455.95746480     A.U. after    1 cycles
            NFock=  1  Conv=0.42D-09     -V/T= 2.0027
 KE= 1.452051133193D+03 PE=-6.978996356772D+03 EE= 2.296540975549D+03
 SMD-CDS (non-electrostatic) energy       (kcal/mol) =       7.47
 (included in total energy above)
 Leave Link  502 at Tue Nov  5 11:44:24 2019, MaxMem=  6815744000 cpu:       993.5
 (Enter /apps/gaussian/g09_d01/g09/l601.exe)
 Copying SCF densities to generalized density rwf, IOpCl= 0 IROHF=0.

 **********************************************************************

            Population analysis using the SCF density.

 **********************************************************************

 Orbital symmetries:
       Occupied  (A) (A) (A) (A) (A) (A) (A) (A) (A) (A) (A) (A)
                 (A) (A) (A) (A) (A) (A) (A) (A) (A) (A) (A) (A)
                 (A) (A) (A) (A) (A) (A) (A) (A) (A) (A) (A) (A)
                 (A) (A) (A) (A) (A) (A) (A) (A) (A) (A) (A) (A)
                 (A) (A) (A) (A) (A) (A) (A) (A) (A) (A) (A) (A)
                 (A) (A) (A) (A) (A) (A) (A) (A) (A) (A) (A) (A)
                 (A) (A) (A) (A) (A) (A)
       Virtual   (A) (A) (A) (A) (A) (A) (A) (A) (A) (A) (A) (A)
                 (A) (A) (A) (A) (A) (A) (A) (A) (A) (A) (A) (A)
                 (A) (A) (A) (A) (A) (A) (A) (A) (A) (A) (A) (A)
                 (A) (A) (A) (A) (A) (A) (A) (A) (A) (A) (A) (A)
                 (A) (A) (A) (A) (A) (A) (A) (A) (A) (A) (A) (A)
                 (A) (A) (A) (A) (A) (A) (A) (A) (A) (A) (A) (A)
                 (A) (A) (A) (A) (A) (A) (A) (A) (A) (A) (A) (A)
                 (A) (A) (A) (A) (A) (A) (A) (A) (A) (A) (A) (A)
                 (A) (A) (A) (A) (A) (A) (A) (A) (A) (A) (A) (A)
                 (A) (A) (A) (A) (A) (A) (A) (A) (A) (A) (A) (A)
                 (A) (A) (A) (A) (A) (A) (A) (A) (A) (A) (A) (A)
                 (A) (A) (A) (A) (A) (A) (A) (A) (A) (A) (A) (A)
                 (A) (A) (A) (A) (A) (A) (A) (A) (A) (A) (A) (A)
                 (A) (A) (A) (A) (A) (A) (A) (A) (A) (A) (A) (A)
                 (A) (A) (A) (A) (A) (A) (A) (A) (A) (A) (A) (A)
                 (A) (A) (A) (A) (A) (A) (A) (A) (A) (A) (A) (A)
                 (A) (A) (A) (A) (A) (A) (A) (A) (A) (A) (A) (A)
                 (A) (A) (A) (A) (A) (A) (A) (A) (A) (A) (A) (A)
                 (A) (A) (A) (A) (A) (A) (A) (A) (A) (A) (A) (A)
                 (A) (A) (A) (A) (A) (A) (A) (A) (A) (A) (A) (A)
                 (A) (A) (A) (A) (A) (A) (A) (A) (A) (A) (A) (A)
                 (A) (A) (A) (A) (A) (A) (A) (A) (A) (A) (A) (A)
                 (A) (A) (A) (A) (A) (A) (A) (A) (A) (A) (A) (A)
                 (A) (A) (A) (A) (A) (A) (A) (A) (A) (A) (A) (A)
                 (A) (A) (A) (A) (A) (A) (A) (A) (A) (A) (A) (A)
                 (A) (A) (A) (A) (A) (A) (A) (A) (A) (A) (A) (A)
                 (A) (A) (A) (A) (A) (A) (A) (A) (A) (A) (A) (A)
                 (A) (A) (A) (A) (A) (A) (A) (A) (A) (A) (A) (A)
                 (A) (A) (A) (A) (A) (A) (A) (A) (A) (A) (A) (A)
                 (A) (A) (A) (A) (A) (A) (A) (A) (A) (A) (A) (A)
                 (A) (A) (A) (A) (A) (A) (A) (A) (A) (A) (A) (A)
                 (A) (A) (A) (A) (A) (A) (A) (A) (A) (A) (A) (A)
                 (A) (A) (A) (A) (A) (A) (A) (A) (A) (A) (A) (A)
                 (A) (A) (A) (A) (A) (A) (A) (A) (A) (A) (A) (A)
                 (A) (A) (A) (A) (A) (A) (A) (A) (A) (A) (A) (A)
                 (A) (A) (A) (A) (A) (A) (A) (A) (A) (A) (A) (A)
                 (A) (A) (A) (A) (A) (A) (A) (A) (A) (A) (A) (A)
                 (A) (A) (A) (A) (A) (A) (A) (A) (A) (A) (A) (A)
                 (A) (A) (A) (A) (A) (A) (A) (A) (A) (A) (A) (A)
                 (A) (A) (A) (A) (A) (A) (A) (A) (A) (A) (A) (A)
                 (A) (A) (A) (A) (A) (A) (A) (A) (A) (A) (A) (A)
                 (A) (A) (A) (A) (A) (A) (A) (A) (A) (A) (A) (A)
                 (A) (A) (A) (A)
 The electronic state is 1-A.
 Alpha  occ. eigenvalues --  -89.89738 -78.14314 -19.66108 -19.61075 -19.60251
 Alpha  occ. eigenvalues --  -14.72352 -10.59660 -10.56670 -10.55623 -10.55559
 Alpha  occ. eigenvalues --  -10.55513 -10.54224 -10.52284 -10.51072 -10.51049
 Alpha  occ. eigenvalues --  -10.51043 -10.51039  -8.26393  -6.95665  -6.18505
 Alpha  occ. eigenvalues --   -6.18277  -6.17926  -5.07493  -5.07396  -5.07237
 Alpha  occ. eigenvalues --   -1.19256  -1.12220  -1.10519  -1.02490  -0.89801
 Alpha  occ. eigenvalues --   -0.87593  -0.87146  -0.84020  -0.82325  -0.77849
 Alpha  occ. eigenvalues --   -0.76799  -0.75989  -0.72617  -0.69212  -0.67738
 Alpha  occ. eigenvalues --   -0.64086  -0.60206  -0.60001  -0.57132  -0.56419
 Alpha  occ. eigenvalues --   -0.55526  -0.54660  -0.53439  -0.51797  -0.50311
 Alpha  occ. eigenvalues --   -0.49885  -0.49314  -0.48810  -0.48088  -0.47930
 Alpha  occ. eigenvalues --   -0.47464  -0.46835  -0.45831  -0.45438  -0.44756
 Alpha  occ. eigenvalues --   -0.44062  -0.43727  -0.43349  -0.43013  -0.42410
 Alpha  occ. eigenvalues --   -0.41268  -0.40811  -0.40501  -0.39556  -0.39452
 Alpha  occ. eigenvalues --   -0.38936  -0.38427  -0.37541  -0.36911  -0.36611
 Alpha  occ. eigenvalues --   -0.34989  -0.30728  -0.26193
 Alpha virt. eigenvalues --   -0.00064   0.00883   0.00911   0.01129   0.02150
 Alpha virt. eigenvalues --    0.02452   0.02483   0.02902   0.03126   0.03916
 Alpha virt. eigenvalues --    0.04178   0.04733   0.04836   0.04954   0.05182
 Alpha virt. eigenvalues --    0.05604   0.05723   0.06786   0.06863   0.07134
 Alpha virt. eigenvalues --    0.07393   0.07754   0.08104   0.08235   0.08378
 Alpha virt. eigenvalues --    0.09039   0.09238   0.09360   0.09890   0.10550
 Alpha virt. eigenvalues --    0.10855   0.11286   0.11523   0.11733   0.12090
 Alpha virt. eigenvalues --    0.12324   0.12661   0.12892   0.12996   0.13227
 Alpha virt. eigenvalues --    0.13395   0.13770   0.14263   0.14490   0.14745
 Alpha virt. eigenvalues --    0.14895   0.14977   0.15175   0.15649   0.15813
 Alpha virt. eigenvalues --    0.15833   0.16264   0.16431   0.16648   0.16811
 Alpha virt. eigenvalues --    0.17072   0.17441   0.17467   0.17764   0.17954
 Alpha virt. eigenvalues --    0.18160   0.18614   0.18803   0.18989   0.19249
 Alpha virt. eigenvalues --    0.19270   0.19577   0.20146   0.20335   0.20530
 Alpha virt. eigenvalues --    0.20685   0.21008   0.21192   0.21430   0.21751
 Alpha virt. eigenvalues --    0.22209   0.22580   0.22785   0.22897   0.23174
 Alpha virt. eigenvalues --    0.23361   0.23636   0.24024   0.24518   0.24866
 Alpha virt. eigenvalues --    0.25279   0.25682   0.25780   0.26056   0.26653
 Alpha virt. eigenvalues --    0.26957   0.27449   0.27745   0.27947   0.28045
 Alpha virt. eigenvalues --    0.28626   0.29435   0.29612   0.29799   0.30556
 Alpha virt. eigenvalues --    0.30683   0.31160   0.31467   0.31766   0.32197
 Alpha virt. eigenvalues --    0.32309   0.32355   0.32975   0.33423   0.33689
 Alpha virt. eigenvalues --    0.34018   0.34604   0.34743   0.34887   0.35090
 Alpha virt. eigenvalues --    0.36037   0.36104   0.36255   0.36725   0.37269
 Alpha virt. eigenvalues --    0.37517   0.37703   0.37953   0.38165   0.38678
 Alpha virt. eigenvalues --    0.39621   0.39794   0.40119   0.40713   0.41046
 Alpha virt. eigenvalues --    0.41538   0.41632   0.42407   0.43185   0.43809
 Alpha virt. eigenvalues --    0.44269   0.44980   0.45987   0.46213   0.46803
 Alpha virt. eigenvalues --    0.47870   0.49004   0.49545   0.50732   0.50948
 Alpha virt. eigenvalues --    0.51989   0.52474   0.52890   0.54442   0.54694
 Alpha virt. eigenvalues --    0.56139   0.57499   0.57842   0.58891   0.59054
 Alpha virt. eigenvalues --    0.59619   0.60271   0.61232   0.61924   0.62513
 Alpha virt. eigenvalues --    0.63264   0.63772   0.64564   0.65537   0.66067
 Alpha virt. eigenvalues --    0.66376   0.67415   0.68220   0.68778   0.68946
 Alpha virt. eigenvalues --    0.69350   0.69715   0.70998   0.71434   0.71745
 Alpha virt. eigenvalues --    0.72082   0.72809   0.73784   0.74176   0.74439
 Alpha virt. eigenvalues --    0.74710   0.75114   0.75563   0.76164   0.76466
 Alpha virt. eigenvalues --    0.76961   0.77790   0.78209   0.79219   0.79314
 Alpha virt. eigenvalues --    0.80187   0.80665   0.81120   0.81649   0.82409
 Alpha virt. eigenvalues --    0.82653   0.83297   0.83497   0.84274   0.84769
 Alpha virt. eigenvalues --    0.85120   0.86231   0.86617   0.86956   0.88142
 Alpha virt. eigenvalues --    0.88684   0.89316   0.89673   0.90313   0.91647
 Alpha virt. eigenvalues --    0.93255   0.94248   0.95648   0.97152   0.98098
 Alpha virt. eigenvalues --    0.98952   0.99692   1.01157   1.01780   1.01977
 Alpha virt. eigenvalues --    1.04205   1.04744   1.05736   1.06066   1.06872
 Alpha virt. eigenvalues --    1.09238   1.09529   1.10715   1.12029   1.13851
 Alpha virt. eigenvalues --    1.14539   1.14964   1.17436   1.17807   1.19286
 Alpha virt. eigenvalues --    1.20198   1.20877   1.21396   1.23111   1.24724
 Alpha virt. eigenvalues --    1.25579   1.26444   1.28495   1.29712   1.30215
 Alpha virt. eigenvalues --    1.32192   1.32353   1.33012   1.34292   1.35833
 Alpha virt. eigenvalues --    1.36076   1.37948   1.38889   1.41630   1.44065
 Alpha virt. eigenvalues --    1.45306   1.46660   1.48070   1.49721   1.50102
 Alpha virt. eigenvalues --    1.51322   1.52549   1.53269   1.54172   1.54561
 Alpha virt. eigenvalues --    1.55008   1.55792   1.56490   1.57089   1.57577
 Alpha virt. eigenvalues --    1.58197   1.59497   1.59748   1.61233   1.62072
 Alpha virt. eigenvalues --    1.62246   1.63517   1.64282   1.64402   1.64954
 Alpha virt. eigenvalues --    1.65154   1.66177   1.66853   1.67148   1.67546
 Alpha virt. eigenvalues --    1.67992   1.68621   1.69090   1.69507   1.70574
 Alpha virt. eigenvalues --    1.71587   1.72120   1.72455   1.73314   1.74529
 Alpha virt. eigenvalues --    1.74827   1.74913   1.75363   1.76290   1.76947
 Alpha virt. eigenvalues --    1.77437   1.78590   1.78616   1.79196   1.80225
 Alpha virt. eigenvalues --    1.80965   1.81345   1.82410   1.83656   1.84400
 Alpha virt. eigenvalues --    1.84608   1.85251   1.86660   1.87885   1.88460
 Alpha virt. eigenvalues --    1.88838   1.90075   1.90145   1.91537   1.91810
 Alpha virt. eigenvalues --    1.92417   1.93323   1.94695   1.96482   1.97618
 Alpha virt. eigenvalues --    1.98116   2.00793   2.00864   2.01727   2.02811
 Alpha virt. eigenvalues --    2.05193   2.06900   2.07735   2.08293   2.09086
 Alpha virt. eigenvalues --    2.10514   2.13083   2.13255   2.15063   2.16771
 Alpha virt. eigenvalues --    2.17914   2.18084   2.19050   2.20043   2.21921
 Alpha virt. eigenvalues --    2.22521   2.23763   2.24081   2.25209   2.25644
 Alpha virt. eigenvalues --    2.27808   2.29958   2.31119   2.32528   2.34514
 Alpha virt. eigenvalues --    2.35898   2.36318   2.37116   2.38304   2.39867
 Alpha virt. eigenvalues --    2.41312   2.42014   2.44138   2.47259   2.53321
 Alpha virt. eigenvalues --    2.53926   2.54262   2.54829   2.55549   2.56211
 Alpha virt. eigenvalues --    2.57242   2.57519   2.58225   2.58817   2.58933
 Alpha virt. eigenvalues --    2.59194   2.59718   2.60114   2.60918   2.61895
 Alpha virt. eigenvalues --    2.62374   2.62414   2.63217   2.64187   2.65656
 Alpha virt. eigenvalues --    2.66175   2.67517   2.67706   2.68070   2.68650
 Alpha virt. eigenvalues --    2.69599   2.71342   2.71790   2.72370   2.72954
 Alpha virt. eigenvalues --    2.74294   2.75781   2.76473   2.76829   2.78759
 Alpha virt. eigenvalues --    2.79490   2.80237   2.81784   2.83372   2.83983
 Alpha virt. eigenvalues --    2.85335   2.86092   2.87189   2.87946   2.92099
 Alpha virt. eigenvalues --    2.92525   2.93967   2.95709   2.95768   2.97129
 Alpha virt. eigenvalues --    2.97379   2.97701   2.99636   3.00027   3.01739
 Alpha virt. eigenvalues --    3.03092   3.03394   3.05756   3.07409   3.08788
 Alpha virt. eigenvalues --    3.09688   3.09947   3.13806   3.14881   3.16642
 Alpha virt. eigenvalues --    3.17860   3.18664   3.22978   3.23743   3.27348
 Alpha virt. eigenvalues --    3.31086   3.32348   3.36353   3.38711   3.41759
 Alpha virt. eigenvalues --    3.44799   3.45373   3.48267   3.64199   3.68719
 Alpha virt. eigenvalues --    3.73474   3.77300   3.79438   3.79992   3.80076
 Alpha virt. eigenvalues --    3.82494   3.84117   3.85167   3.86029   3.86172
 Alpha virt. eigenvalues --    3.87191   3.87916   3.88941   3.89827   3.90819
 Alpha virt. eigenvalues --    3.92203   3.92373   3.95093   4.01307   4.07350
 Alpha virt. eigenvalues --    4.16521   4.17256   4.20132   4.28905   4.33571
 Alpha virt. eigenvalues --    4.34492   4.47240   4.99581   5.00598   5.17334
 Alpha virt. eigenvalues --    5.21445   5.21726   5.32418   5.35617   5.41747
 Alpha virt. eigenvalues --    5.54433   5.59004   5.79665   7.43262   8.18095
 Alpha virt. eigenvalues --   14.18365  14.20918  14.28762  17.62244  17.69990
 Alpha virt. eigenvalues --   17.72445  23.91116  23.95039  23.95652  23.97748
 Alpha virt. eigenvalues --   24.02970  24.04725  24.07936  24.08826  24.09473
 Alpha virt. eigenvalues --   24.11049  24.12248  35.69400  50.02690  50.04201
 Alpha virt. eigenvalues --   50.08816 163.72860 189.51447
          Condensed to atoms (all electrons):
               1          2          3          4          5          6
     1  P   18.514663  -0.566207  -0.210871  -0.594895  -0.463406   0.105103
     2  S   -0.566207  17.567956  -0.118244   0.878480   0.141764  -0.423586
     3  O   -0.210871  -0.118244   8.385307  -0.026953   0.191310   0.047157
     4  C   -0.594895   0.878480  -0.026953   8.548549   0.045871  -0.166993
     5  C   -0.463406   0.141764   0.191310   0.045871   5.990116  -0.051924
     6  O    0.105103  -0.423586   0.047157  -0.166993  -0.051924   8.765593
     7  C   -1.112421  -0.173540  -0.097551   0.113529  -0.111574  -0.075559
     8  H   -0.179015   0.013961   0.030330   0.030457   0.005370  -0.007579
     9  H   -0.298046  -0.028949   0.005486  -0.006098  -0.003874   0.024221
    10  H   -0.003000  -0.009129  -0.008255  -0.009001  -0.021860  -0.020405
    11  H   -0.117681   0.129111  -0.120427   0.061757   0.225720   0.086652
    12  H   -0.063852   0.006318  -0.034401  -0.005902   0.447471  -0.019587
    13  C    0.124180  -0.043361  -0.128969  -0.003931  -0.362956  -0.077103
    14  H    0.005151  -0.023550   0.021065  -0.002792  -0.080233   0.010341
    15  H    0.009041   0.010502  -0.013290   0.001057  -0.069870  -0.004723
    16  H   -0.148165   0.068697  -0.002357   0.018846   0.100291  -0.013808
    17  C    0.841691  -2.266016   0.035846  -3.489566  -0.065428   0.268262
    18  H   -0.263439  -0.200512   0.020357   0.050977  -0.005153   0.040371
    19  H    0.056997  -0.053539  -0.003767   0.316517  -0.007282   0.009228
    20  H   -0.023937   0.070037   0.000720   0.172912  -0.000851  -0.007104
    21  N    0.004207   0.090202  -0.008955   0.128971   0.004732   0.015812
    22  H   -0.049265  -0.063939   0.001983  -0.103792  -0.005062  -0.006985
    23  C   -0.329833   0.781303   0.001686   0.525337  -0.020821  -0.089873
    24  C   -0.160758   0.416565   0.034829   0.069257  -0.088300  -0.126143
    25  C    0.075285  -0.022468  -0.020285   0.190898   0.008420   0.054997
    26  C   -0.116303   0.094617   0.003720   0.108294   0.014364  -0.023175
    27  H    0.035822  -0.072763  -0.000230  -0.014746  -0.011118   0.030136
    28  H   -0.034853   0.043029   0.002009   0.017866   0.003268  -0.005133
    29  C    0.170009  -0.556658   0.007344  -0.330567   0.082774   0.087535
    30  C    0.031981  -0.070433  -0.000785  -0.082847  -0.017638   0.004144
    31  H    0.041362  -0.057835   0.017523  -0.051483   0.111748   0.008580
    32  H   -0.003535  -0.004120  -0.002173   0.014474  -0.011391   0.005514
    33  H    0.010314  -0.002863   0.000581  -0.014962  -0.004769   0.001509
    34  H    0.006065   0.004268  -0.000223  -0.006235  -0.000127   0.000460
    35  H   -0.001718   0.002821  -0.000042   0.004929   0.000735  -0.001042
    36  H   -0.000625  -0.000806   0.000053   0.001822  -0.000044  -0.000619
    37  H    0.005178  -0.018026   0.000063  -0.014867   0.003548   0.002275
    38  H    0.061882   0.003584  -0.013611  -0.000161   0.021139  -0.021323
    39  H   -0.035442   0.115184   0.001326   0.089498  -0.036956  -0.007485
    40  H   -0.000006   0.000214  -0.000062  -0.001149  -0.000466  -0.000231
    41  H    0.002679  -0.000717   0.000121  -0.019654   0.002266   0.001142
    42  H   -0.000871  -0.003415   0.000122  -0.014199  -0.001339   0.000360
    43  O    0.007648  -0.022284   0.013727  -0.003958   0.012861   0.047550
    44  H    0.017334  -0.008026   0.004189  -0.002283  -0.002663   0.012121
    45  H   -0.078576   0.083939  -0.017980   0.028405   0.030461  -0.074299
               7          8          9         10         11         12
     1  P   -1.112421  -0.179015  -0.298046  -0.003000  -0.117681  -0.063852
     2  S   -0.173540   0.013961  -0.028949  -0.009129   0.129111   0.006318
     3  O   -0.097551   0.030330   0.005486  -0.008255  -0.120427  -0.034401
     4  C    0.113529   0.030457  -0.006098  -0.009001   0.061757  -0.005902
     5  C   -0.111574   0.005370  -0.003874  -0.021860   0.225720   0.447471
     6  O   -0.075559  -0.007579   0.024221  -0.020405   0.086652  -0.019587
     7  C    6.796961   0.431758   0.555808   0.408448   0.035174   0.004508
     8  H    0.431758   0.514118  -0.027351  -0.026344  -0.003207   0.002819
     9  H    0.555808  -0.027351   0.520363  -0.034023   0.005337   0.001557
    10  H    0.408448  -0.026344  -0.034023   0.497405  -0.004113  -0.002013
    11  H    0.035174  -0.003207   0.005337  -0.004113   1.156568  -0.118812
    12  H    0.004508   0.002819   0.001557  -0.002013  -0.118812   0.570495
    13  C   -0.003642  -0.000814  -0.008459   0.009083  -0.212267  -0.039248
    14  H   -0.001111  -0.000271   0.000495  -0.000071   0.046341  -0.022775
    15  H    0.014065   0.000383  -0.000067   0.001565  -0.004219  -0.020082
    16  H    0.013496   0.001620   0.005328  -0.002180  -0.074175   0.035036
    17  C    0.037781  -0.019785   0.019288   0.007364  -0.205968   0.004700
    18  H    0.094032  -0.007103   0.015569   0.003903  -0.008089   0.005954
    19  H   -0.010658  -0.004960  -0.001631   0.000828   0.005077  -0.001321
    20  H    0.004179   0.001112   0.000079   0.000030  -0.000834   0.000184
    21  N   -0.006223  -0.001123  -0.000999  -0.000484  -0.042308  -0.002830
    22  H    0.021495   0.001414   0.001919   0.000088  -0.010397   0.001517
    23  C    0.014972   0.002080  -0.000942  -0.000147   0.259228   0.019816
    24  C   -0.045337   0.000821  -0.000035  -0.004705   0.236138   0.006294
    25  C   -0.001114  -0.001643  -0.001629   0.000798  -0.009275  -0.017093
    26  C    0.000789   0.001226   0.000039  -0.000694  -0.016663   0.001935
    27  H   -0.007609  -0.000929  -0.000726  -0.001216   0.027921  -0.003478
    28  H   -0.000036   0.000122   0.000005  -0.000089   0.038874   0.002316
    29  C   -0.016562  -0.002091   0.001317  -0.000866  -0.094871  -0.019516
    30  C    0.000213  -0.000146   0.000101   0.000092  -0.009144  -0.001438
    31  H   -0.014556   0.001111  -0.000923   0.002597  -0.289202   0.014630
    32  H    0.001721  -0.000206   0.000109   0.000020   0.040282  -0.002684
    33  H   -0.001452  -0.000277  -0.000043  -0.000064   0.000879  -0.000688
[...]
 00000219,0.00000307,0.00000068,-0.00000249,-0.00000579,-0.00000850,0.0
 0000413,0.00000008,0.00000355,0.00000438,0.00000267,-0.00021185,-0.000
 30880,-0.00051618,-0.00000510,-0.00000054,-0.00000431,-0.00000403,0.00
 000153,0.00000235,-0.00032659,-0.00009226,-0.00027221,0.00279028,-0.00
 076476,-0.00024766,0.00000606,0.00007009,0.00009209,-0.01105888,-0.017
 36472,0.01931834,-0.00045140,0.00019362,-0.00006342,0.00006797,0.00006
 066,0.00003285,-0.00032222,-0.00003861,-0.00000685,0.00009713,0.000037
 33,-0.00001078,0.00082522,0.00013223,-0.00041383,-0.00449527,0.0040825
 4,0.00161896,-0.09794750,-0.06414103,0.08658475,0.00001727,-0.00002715
 ,-0.00002792,-0.00002200,-0.00001128,-0.00002848,-0.00000466,-0.000001
 02,-0.00001255,0.00000262,0.00007321,-0.00050961,0.00031700,-0.0001604
 3,0.00005294,0.00013522,0.00041928,0.00031467,0.00041542,-0.00001336,0
 .00001491,-0.00099045,-0.00102519,0.00128741,0.00012360,0.00009957,-0.
 00023173,0.00989595,0.01196219,-0.01402631,-0.00300930,-0.00232579,0.0
 0336869,0.10418904,0.00000472,0.00001416,-0.00000418,0.00002808,-0.000
 01264,-0.00000936,0.00000073,-0.00000237,-0.00000002,0.00002874,0.0000
 0655,-0.00006933,0.00000288,0.00000168,-0.00000130,-0.00000532,-0.0000
 0239,0.00000058,0.00000026,-0.00000100,0.00000058,0.00000021,-0.000000
 18,0.00000002,-0.00000029,-0.00000024,-0.00000018,0.00000019,-0.000000
 21,0.00000089,-0.00000215,0.00000076,0.,0.00000060,0.00000010,-0.00000
 081,0.00001003,0.00000256,-0.00000080,-0.00000095,0.00000066,0.0000020
 1,0.00000403,-0.00000175,-0.00000020,0.00000004,-0.00000153,-0.0000019
 3,0.00001391,-0.00004060,0.00029500,-0.00000013,-0.00000484,0.00000441
 ,-0.00000656,-0.00000107,-0.00000809,0.00008368,0.00008683,-0.00008433
 ,-0.00154565,0.00087742,0.00010955,0.00001424,0.00003686,0.00005554,0.
 00561947,0.00865623,-0.01144645,0.00008907,0.00001904,-0.00004659,-0.0
 0003986,-0.00002999,-0.00000244,0.00050381,-0.00260596,0.00093625,-0.0
 0004725,0.00000523,0.00001305,-0.00090307,0.00034897,0.00024372,0.0022
 3414,-0.00064272,-0.00065869,-0.06586182,-0.12632426,0.10744402,-0.000
 01715,0.00002238,0.00002209,0.00000413,0.00000205,0.00000116,-0.000002
 91,0.00000937,0.00000377,0.00015974,-0.00054305,0.00026162,0.00027058,
 -0.00015587,0.00003184,0.00049962,-0.00141246,0.00041139,-0.00002757,-
 0.00010879,-0.00002098,0.00057121,0.00051674,-0.00038569,0.00019328,0.
 00014372,-0.00006260,0.00036432,-0.00098905,-0.00028180,-0.01137857,-0
 .01426253,0.02154034,0.06913891,0.13639178,-0.00002165,0.00001404,-0.0
 0000244,-0.00000491,-0.00001498,0.00000999,0.00001059,-0.00000119,0.00
 000079,-0.00000359,-0.00002636,0.00005537,-0.00000012,0.00000016,-0.00
 000240,0.00000721,-0.00000869,0.00000378,0.00000364,-0.00000234,-0.000
 00089,0.00000011,-0.00000002,-0.00000028,0.00000017,0.00000015,0.00000
 008,0.00000112,0.00000014,0.00000104,0.00000453,0.00000243,0.00000039,
 0.00000157,-0.00000007,-0.00000134,0.00000785,0.00000317,0.00000139,-0
 .00000144,0.00000130,0.00000183,0.00000349,-0.00000200,-0.00000082,0.0
 0000034,-0.00000302,-0.00000243,0.00017944,0.00004345,0.00003105,0.000
 01285,-0.00000248,0.00000645,0.00001570,0.00000585,0.00000770,-0.00004
 100,0.00011348,0.00002843,-0.00048882,-0.00040104,0.00071191,0.0001001
 1,-0.00008894,0.00006682,0.00119721,0.00540299,-0.00704156,0.00033097,
 -0.00002406,0.00011910,0.00000758,0.00001150,-0.00000519,-0.00024619,0
 .00184588,-0.00054914,-0.00002295,-0.00010786,0.00002418,-0.00019806,-
 0.00001511,-0.00001839,0.00165215,-0.00164857,0.00011372,0.08844761,0.
 10556324,-0.18882087,-0.00000001,-0.00000404,-0.00000509,0.00000003,0.
 00000647,0.00000403,-0.00000057,-0.00001695,-0.00000228,-0.00020658,0.
 00069035,-0.00018000,-0.00040632,0.00023219,-0.00001912,-0.00021579,-0
 .00010832,-0.00035158,0.00000136,-0.00022037,0.00030831,0.00054213,0.0
 0054177,-0.00008162,0.00012803,0.00022608,-0.00003099,0.01114439,0.012
 52328,-0.01607007,-0.00567597,-0.00624090,0.00950535,-0.09626517,-0.11
 829204,0.20218470,-0.00106530,-0.00143512,0.00076132,-0.00003008,0.000
 27994,0.00000432,0.00017598,-0.00000034,-0.00030989,0.00007223,0.00002
 893,-0.00005070,-0.00025375,0.00032727,-0.00000875,0.00195794,0.003954
 17,0.00236990,0.00013906,0.00020879,-0.00012887,-0.00000675,0.00000281
 ,-0.00002138,0.00009555,-0.00001368,0.00006867,0.00002773,0.00005225,0
 .00003949,0.00012652,-0.00004844,-0.00002392,-0.00003074,-0.00010434,-
 0.00002122,0.00011539,0.00003351,-0.00000202,-0.00000754,-0.00000047,-
 0.00000084,0.00000231,0.00004735,-0.00001603,-0.00000568,0.00000501,0.
 00001356,0.00000002,-0.00001720,-0.00000744,0.00001762,-0.00000841,-0.
 00002666,-0.00001777,0.00000478,0.00000885,-0.00002079,-0.00000110,0.0
 0000886,-0.00006583,0.00002327,0.00002598,0.00000238,0.00001019,0.0000
 0060,0.00003632,-0.00002159,0.00002691,-0.00020102,-0.00017770,-0.0000
 4172,0.00040119,0.00042757,-0.00007321,-0.00001177,0.00010899,0.000080
 75,0.00001312,-0.00000181,0.00000164,0.00001068,-0.00000053,0.00000278
 ,-0.00000073,0.00000524,-0.00001470,-0.00000304,0.00000519,-0.00000739
 ,-0.00075695,0.00028718,0.00025915,-0.00011490,-0.00002377,0.00000140,
 0.00008121,-0.00010388,0.00001361,-0.00004535,-0.00000453,0.00002291,0
 .00000091,-0.00000665,-0.00000204,-0.00000262,-0.00000150,-0.00000527,
 -0.00000637,0.00000350,-0.00000370,-0.00000434,-0.00001014,0.00001000,
 -0.00000189,0.00000246,0.00000264,-0.00000608,0.00000191,-0.00000069,-
 0.00000231,0.00000418,0.00000130,-0.00000060,-0.00000151,0.00000214,0.
 25437919,0.00311605,0.00595534,-0.00155060,0.00022109,-0.00086011,-0.0
 0005687,-0.00031265,-0.00050431,0.00087423,-0.00020244,-0.00010967,0.0
 0013480,-0.00000435,-0.00072445,0.00023346,0.00041581,-0.01075597,-0.0
 0877529,-0.00030736,-0.00063975,0.00004680,0.00002245,-0.00000645,0.00
 004152,-0.00021570,0.00002869,-0.00008120,-0.00001755,-0.00001935,0.00
 001643,-0.00036191,-0.00008397,0.00002708,0.00030255,-0.00018745,-0.00
 016374,-0.00012695,-0.00004338,-0.00017633,0.00001803,-0.00001121,0.00
 003567,-0.00000410,-0.00010118,0.00004245,-0.00000528,-0.00006245,0.00
 002001,-0.00002978,-0.00001616,-0.00007878,-0.00006753,-0.00000115,0.0
 0011377,0.00007068,-0.00001447,-0.00002075,0.00005803,0.00001484,0.000
 00944,0.00010618,0.00002876,0.00000296,0.00000125,0.00000572,0.0000094
 6,-0.00003442,0.00002092,-0.00004454,0.00000866,-0.00001909,0.00003255
 ,-0.00002031,0.00001029,-0.00002479,-0.00000256,-0.00001053,-0.0000135
 5,0.00000232,-0.00001502,0.00000417,0.00000021,0.00000242,0.00000907,0
 .00000772,-0.00000444,0.00001973,0.00000682,-0.00000440,0.00001393,0.0
 0021374,-0.00008429,-0.00001362,0.00001127,0.00000454,-0.00000728,0.00
 007834,-0.00000331,-0.00001258,0.00000808,0.00000149,-0.00000233,0.000
 00563,0.00000634,-0.00000494,0.00000455,0.00000092,0.00000122,0.000007
 42,-0.00000178,0.00000666,0.00000239,0.00000578,-0.00001238,-0.0000054
 2,0.00001148,-0.00000520,0.00000753,-0.00000308,0.00000202,0.00000159,
 0.00000104,-0.00000123,0.00000147,0.00000042,-0.00000179,0.10678825,0.
 40838577,0.00342539,0.00568770,-0.00249879,0.00020116,-0.00112921,-0.0
 0003942,-0.00034697,-0.00066979,0.00133772,-0.00023578,-0.00008315,0.0
 0017803,-0.00024183,0.00025051,-0.00096002,0.00010161,-0.01388049,-0.0
 0736267,-0.00034745,-0.00061777,0.00018588,0.00003694,0.00000368,0.000
 05776,-0.00021431,0.00001930,-0.00011985,-0.00001274,-0.00000694,0.000
 00055,0.00007717,-0.00000085,-0.00001278,-0.00017052,0.00017032,0.0002
 2100,0.00008404,0.00006034,0.00019746,0.00000610,-0.00003770,0.0000276
 8,-0.00000054,0.00002081,-0.00000865,-0.00001224,0.00004681,-0.0000350
 9,-0.00004136,-0.00003173,-0.00009267,-0.00008081,-0.00000214,0.000106
 30,0.00006814,-0.00002232,-0.00001429,0.00005595,0.00001937,0.00001641
 ,0.00009491,0.00002202,0.00003489,-0.00000047,0.00000469,0.00001370,-0
 .00002587,0.00001557,-0.00005980,0.00003251,-0.00001842,0.00000759,0.0
 0002062,-0.00008264,0.00004260,0.00000058,-0.00000170,-0.00000823,0.00
 000700,-0.00001011,0.00001791,0.00001044,0.00000502,0.00000758,0.00002
 562,-0.00001275,0.00001439,0.00000869,-0.00000595,0.00001825,0.0002406
 9,-0.00006103,-0.00004968,0.00006436,0.00000381,-0.00000925,-0.0000660
 4,0.00001505,0.00000960,0.00000498,0.00000163,-0.00000218,0.00000183,0
 .00000389,-0.00000303,0.00000659,0.00000086,0.00000322,0.00000595,-0.0
 0000153,0.00000923,-0.00000600,-0.00000972,-0.00000020,-0.00000600,0.0
 0001427,-0.00000384,0.00000926,-0.00000278,0.00000193,0.,0.00000382,-0
 .00000047,-0.00000315,0.00000063,-0.00000047,-0.28727928,0.07806354,0.
 44919536,0.00018216,0.00038097,0.00024630,0.00001090,-0.00005596,-0.00
 001345,-0.00018436,0.00020769,0.00007260,-0.00001249,-0.00001129,0.000
 00652,-0.00033480,0.00070196,-0.00002104,0.00003172,-0.00033295,-0.000
 45797,-0.00000093,-0.00000868,0.00000082,-0.00001039,0.00000137,-0.000
 00086,-0.00000978,-0.00000142,-0.00001155,-0.00000749,0.00000274,-0.00
 000374,-0.00015878,0.00005777,0.00007737,0.00008521,-0.00002675,-0.000
 28559,-0.00005204,-0.00007676,-0.00012826,0.00000251,0.00001380,-0.000
 00302,-0.00000351,-0.00003858,0.00001287,0.00000988,-0.00005302,0.0000
 1337,-0.00000250,0.00000583,0.00000055,-0.00000335,0.00000030,0.000008
 50,0.00000544,0.00000060,-0.00000357,0.00000509,-0.00000250,-0.0000021
 3,0.00002733,0.00000331,-0.00001235,0.,0.00000064,0.00000075,-0.000004
 20,0.00000440,-0.00000025,-0.00004601,-0.00003035,-0.00000586,0.000042
 40,0.00011411,-0.00004456,0.00000023,0.00001281,0.00001160,-0.00000217
 ,-0.00000101,0.00000319,0.00000066,-0.00000163,0.00000123,-0.00000013,
 -0.00000381,0.00000165,0.00000138,0.00000072,-0.00000017,-0.00018407,-
 0.00002575,0.00007917,-0.00003482,-0.00000198,0.00000605,0.00002980,-0
 .00000541,-0.00000920,-0.00000468,-0.00000193,0.00000164,0.00000214,0.
 00000055,0.00000010,0.00000037,0.00000092,-0.00000111,0.00000015,0.000
 00039,0.00000039,0.00000201,0.00000472,-0.00000137,0.00000075,-0.00000
 203,-0.00000143,0.00000042,0.00000009,0.00000011,0.00000034,-0.0000009
 5,-0.00000054,0.00000164,-0.00000033,-0.00000075,-0.20883161,-0.153565
 96,0.20368330,0.21688895,0.00028776,0.00000353,-0.00076756,-0.00002717
 ,-0.00006255,0.00004529,0.00001710,-0.00016157,0.00050427,0.00000630,0
 .00002242,0.00000546,0.00122976,-0.00287526,-0.00099774,-0.00026168,-0
 .00111240,-0.00024771,-0.00004590,-0.00001334,0.00011094,0.00002721,0.
 00000300,0.00001411,-0.00001718,-0.00000268,-0.00001318,-0.00000935,0.
 00000228,-0.00000392,0.00017680,0.00007497,-0.00004172,-0.00051548,-0.
 00149136,0.00179466,-0.00010748,0.00011329,0.00039713,-0.00000882,-0.0
 0000617,-0.00002495,0.00001105,0.00005379,-0.00003010,-0.00001296,0.00
 014345,-0.00007561,-0.00000019,-0.00000491,0.00000872,-0.00000615,0.00
 000185,0.00000217,-0.00001054,-0.00000590,0.00000491,-0.00000426,-0.00
 000122,-0.00000004,-0.00001551,-0.00000090,0.00000734,-0.00000041,0.00
 000155,0.00000092,0.00000237,0.00000543,0.00000188,0.00001613,0.000011
 53,-0.00000303,0.00002719,-0.00005066,0.00001304,0.00000274,-0.0000060
 5,-0.00000367,0.00000372,0.00000123,-0.00000277,0.00000066,-0.00000178
 ,-0.00000100,0.00000183,-0.00000245,-0.00000815,-0.00000077,-0.0000010
 1,-0.00000056,-0.00001095,0.00003795,-0.00001780,0.00001382,0.00000104
 ,-0.00000169,-0.00001474,0.00000474,-0.00000017,0.00000146,0.00000011,
 -0.00000173,-0.00000192,-0.00000075,0.00000096,0.00000014,-0.00000148,
 -0.00000071,-0.00000124,0.00000095,-0.00000109,0.00000245,-0.00000301,
 0.00000602,0.00000001,-0.00000106,0.00000040,-0.00000059,-0.00000009,-
 0.00000026,-0.00000044,-0.00000044,0.00000019,-0.00000076,0.00000025,0
 .00000046,-0.18112405,-0.16572138,0.15923798,0.16121678,0.15783096,-0.
 00001030,-0.00067956,-0.00010257,-0.00002177,0.00002773,-0.00000510,-0
 .00009096,0.00025170,-0.00020581,0.00000649,-0.00000369,-0.00000143,-0
 .00041908,0.00018591,0.00068492,-0.00033653,-0.00013723,0.00032738,0.0
 0001603,0.00005517,0.00001422,-0.00000457,0.00000136,-0.00000321,0.000
 00644,0.00000038,-0.00000290,-0.00001445,-0.00001393,-0.00001728,0.000
 03208,-0.00009127,-0.00001936,0.00010689,0.00067576,-0.00078036,0.0000
 5226,-0.00001710,-0.00010753,-0.00000542,0.00000609,-0.00000254,-0.000
 00486,0.00000435,0.00000402,-0.00000105,-0.00003417,0.00001740,0.00000
 259,0.00000209,0.00000285,0.00000267,0.00000315,-0.00000805,-0.0000029
 7,0.00000315,-0.00000140,-0.00000024,-0.00000300,-0.00000029,-0.000008
 40,0.00000267,-0.00000122,-0.00000084,0.00000107,0.00000083,0.00000382
 ,0.00000250,0.00000772,-0.00001474,-0.00000468,-0.00000219,-0.00004165
 ,0.00003336,0.00001771,-0.00000259,0.00000253,0.00000429,-0.00000038,0
 .00000055,-0.00000059,0.00000296,-0.00000231,-0.00000032,0.00000211,-0
 .00000319,-0.00000814,-0.00000052,0.00000155,-0.00000275,0.00006210,-0
 .00002308,-0.00000191,-0.00001099,-0.00000086,-0.00001036,0.00002068,-
 0.00000276,-0.00000879,-0.00000254,0.00000032,0.00000140,0.00000055,0.
 00000081,0.,-0.00000062,-0.00000072,-0.00000130,-0.00000249,0.00000120
 ,-0.00000091,0.00000376,-0.00000142,0.00000427,0.00000026,-0.00000282,
 -0.00000042,-0.00000082,0.00000007,-0.00000038,-0.00000032,-0.00000066
 ,-0.00000007,0.00000084,0.00000005,-0.00000039,0.18835106,0.12106554,-
 0.19498896,-0.20920438,-0.14071854,0.21424283,0.00067251,-0.00046608,-
 0.00173076,0.00001972,-0.00021025,0.00000163,-0.00026271,0.00011779,0.
 00032397,-0.00006357,-0.00000651,0.00003311,0.00052062,-0.00035189,0.0
 0022066,-0.00392364,-0.00189215,-0.00009327,-0.00017272,-0.00033540,0.
 00032122,0.00001191,0.00002233,0.00002822,-0.00015495,0.00001927,-0.00
 011025,-0.00004379,-0.00002484,-0.00005384,-0.00003711,-0.00008409,-0.
 00003648,-0.00004469,-0.00001361,0.00005654,-0.00004212,0.00000225,0.0
 0003650,0.00000128,-0.00000494,-0.00000266,-0.00000043,-0.00000928,0.0
 0000532,0.00000110,0.00001332,-0.00001179,-0.00000430,0.00001609,0.000
 00330,-0.00000093,0.00000728,-0.00000254,0.00001011,0.00000578,-0.0000
 0267,0.00001192,0.00000492,-0.00001030,0.00011309,-0.00003852,-0.00003
 752,-0.00000194,-0.00001181,-0.00000171,-0.00002900,0.00001706,-0.0000
 2102,0.00005928,0.00008046,0.00001945,-0.00023877,-0.00022649,0.000257
 53,0.00001339,-0.00005610,-0.00002687,-0.00002089,0.00001281,0.0000172
 7,-0.00000311,0.00000125,-0.00000272,-0.00000527,-0.00000399,0.0000243
 1,0.00000549,-0.00000576,0.00000650,-0.00054049,0.00011970,-0.00025733
 ,0.00010634,0.00001418,-0.00003937,0.00002649,0.00001317,-0.00000712,0
 .00002397,0.00000125,-0.00001303,-0.00000022,0.00000455,0.00000110,0.0
 0000454,0.00000266,0.00000425,0.00000950,-0.00000398,-0.00000019,0.000
 00448,0.00000861,-0.00001518,0.00000351,-0.00000614,0.00000103,0.00000
 479,-0.00000175,0.00000086,0.00000169,-0.00000412,0.00000025,0.0000007
 4,0.00000042,-0.00000243,-0.04616153,0.04379617,0.08081753,-0.00744334
 ,0.01915330,0.02152990,0.05756902,-0.00637451,-0.01567747,0.00015800,-
 0.00048412,0.00167936,0.00007999,0.00074309,0.00212438,-0.00226148,0.0
 0040086,0.00024274,-0.00023912,0.00024192,-0.00057031,0.00192946,0.002
 15704,0.00800816,0.00490571,0.00077613,0.00129832,-0.00011148,-0.00003
 668,0.00004993,-0.00008842,0.00045913,-0.00004079,0.00022091,0.0000157
 3,0.00007919,-0.00003105,0.00020438,0.00010163,0.00006619,-0.00007128,
 0.00004298,-0.00017775,-0.00001453,-0.00003119,-0.00017990,-0.00003128
 ,0.00008186,-0.00006811,0.00000059,0.00006715,-0.00002582,0.00002450,-
 0.00000905,0.00003011,0.00008203,0.00003833,0.00019280,0.00010149,0.00
 001218,-0.00020211,-0.00015570,0.00002138,0.00004818,-0.00011889,-0.00
 002556,-0.00003185,-0.00023487,-0.00006079,-0.00003585,0.00000168,-0.0
 0001667,-0.00001968,0.00004012,-0.00004313,0.00008756,0.00002707,0.000
 10703,-0.00002770,0.00002241,-0.00010781,-0.00004423,-0.00000662,-0.00
 002640,-0.00000218,-0.00000683,0.00001868,-0.00001769,-0.00001407,-0.0
 0000606,-0.00001807,-0.00001986,0.00002110,-0.00002006,-0.00002003,0.0
 0000812,-0.00002714,0.00004191,0.00002885,0.00003510,-0.00001311,-0.00
 001596,0.00000122,-0.00003925,-0.00002602,0.00001050,0.00000351,0.0000
 0182,-0.00000324,-0.00000972,-0.00001032,0.00000617,-0.00000692,-0.000
 00094,-0.00000117,-0.00001126,-0.00000109,-0.00001109,-0.00000414,0.00
 000412,0.00000771,0.00001135,-0.00002397,0.00000099,-0.00001369,0.0000
 0459,-0.00000273,-0.00000111,-0.00000360,0.00000024,-0.00000016,-0.000
 00027,0.00000278,0.07049404,-0.23447594,-0.22698289,-0.00848342,0.0132
 1411,0.01941194,-0.05967693,0.22391732,-0.00483205,-0.00912151,0.00346
 489,-0.00033867,0.00200672,0.00010421,0.00069743,0.00122275,-0.0020975
 7,0.00039626,0.00015011,-0.00030409,0.00056389,0.00048348,0.00128291,0
 .00253427,0.00989046,0.00023711,0.00058160,0.00099811,-0.00029102,-0.0
 0001366,0.00003180,-0.00007927,0.00033086,-0.00000284,0.00025297,0.000
 00253,0.00007035,0.00001389,-0.00006169,-0.00007737,0.00002497,0.00004
 580,-0.00001984,-0.00017386,-0.00011398,-0.00009137,-0.00018460,-0.000
 00956,0.00005066,-0.00004550,0.00000637,-0.00002243,0.00000189,0.00001
 631,-0.00003258,0.00004247,0.00006994,0.00003590,0.00017355,0.00007093
 ,0.00002621,-0.00010305,-0.00011143,0.00001461,0.00002647,-0.00009187,
 -0.00003025,-0.00002728,-0.00015777,-0.00004630,-0.00005386,0.00000739
 ,-0.00000860,-0.00002805,0.00003239,-0.00002725,0.00007138,0.00005195,
 0.00010016,0.00000990,-0.00010415,-0.00010839,-0.00002877,-0.00000261,
 -0.00004050,-0.00002689,-0.00001031,0.00001531,-0.00002908,-0.00002010
 ,-0.00000520,-0.00001377,-0.00004578,0.00002818,-0.00002286,-0.0000130
 0,0.00000673,-0.00002001,-0.00018842,0.00003846,-0.00007615,-0.0000022
 3,0.00000334,-0.00000008,-0.00000517,0.00001639,-0.00000762,0.00001181
 ,0.00000030,-0.00000623,-0.00000704,-0.00000622,0.00000485,-0.00000972
 ,-0.00000163,-0.00000059,-0.00000787,-0.00000112,-0.00001258,0.0000084
 7,0.00001135,-0.00000263,0.00000701,-0.00001850,0.00000778,-0.00001176
 ,0.00000326,-0.00000257,-0.00000028,-0.00000541,0.00000074,0.00000236,
 -0.00000070,0.00000095,0.09596789,-0.18977871,-0.24543467,0.00598506,-
 0.01919311,-0.01904329,-0.10123140,0.20343523,0.26239499\\-0.00000296,
 -0.00000052,0.00001149,-0.00000725,-0.00000576,0.00001980,0.00000197,0
 .00001262,0.00001537,-0.00000983,-0.00001727,0.00000920,0.00000655,0.0
 0002053,0.00001082,-0.00000115,-0.00000357,-0.00000177,-0.00000693,-0.
 00000560,0.00001881,-0.00001067,-0.00001472,0.00001746,-0.00000800,-0.
 00000291,0.00002834,-0.00000454,-0.00000229,0.00001487,0.00000646,0.00
 001637,0.00000339,0.00001022,0.00002700,0.00000746,0.00000633,0.000025
 34,0.00002079,0.00000992,0.00003165,0.00001745,0.00000635,0.00002929,0
 .00002815,0.00000265,0.00001883,0.00002408,-0.00000742,-0.00001468,0.0
 0000380,-0.00000905,-0.00001910,0.00000246,-0.00001427,-0.00002452,0.0
 0001433,-0.00000999,-0.00002269,-0.00000031,-0.00000161,-0.00000626,-0
 .00000445,-0.00000792,-0.00001196,0.00001108,0.00000143,0.00000075,-0.
 00000470,-0.00000073,-0.00001034,-0.00001632,0.00000503,-0.00000081,-0
 .00002286,-0.00000184,-0.00001719,-0.00002448,-0.00000362,-0.00001585,
 -0.00001448,0.00000514,0.00000461,-0.00001311,0.00000321,0.00001020,0.
 00000541,-0.00000153,-0.00000561,-0.00000420,0.00000590,0.00000416,-0.
 00001722,0.00000817,0.00000471,-0.00002568,0.00000538,-0.00000433,-0.0
 0003084,-0.00000593,-0.00002408,-0.00002008,-0.00000157,-0.00002084,-0
 .00003245,0.00000118,-0.00001193,-0.00002734,0.00000551,0.00001534,0.0
 0000548,0.00000584,0.00001558,0.00000438,-0.00000032,0.00000675,0.0000
 1406,0.00000141,-0.00000008,-0.00000610,-0.00000481,-0.00000834,0.0000
 0468,-0.00000322,-0.00001296,-0.00001065,0.00000972,0.00001360,-0.0000
 1555,0.00001082,0.00001940,-0.00000940,0.00000597,0.00000750,-0.000011
 18\\\@


 SUCCESS-- IF YOU HAVE TRIED TO DO SOMETHING AND FAILED
           YOU ARE BETTER OFF THAN IF YOU HAD TRIED TO DO
           NOTHING AND SUCCEEDED.

                   -- FROM THE BACK OF A SUGAR PACKET
 Job cpu time:       1 days 10 hours 37 minutes 54.8 seconds.
 File lengths (MBytes):  RWF=   1524 Int=      0 D2E=      0 Chk=     41 Scr=      1
 Normal termination of Gaussian 09 at Tue Nov  5 14:29:43 2019.
