 Entering Gaussian System, Link 0=g09
 Input=/work/smf115/VX_Hydrolysis/PO_Reaction/M062X/SMD/VXh13_1a23_SMD.com
 Output=/work/smf115/VX_Hydrolysis/PO_Reaction/M062X/SMD/VXh13_1a23_SMD.log
 Initial command:
 /apps/gaussian/g09_d01/g09/l1.exe "/tmp/pbs.1189690.cx1/Gau-2266.inp" -scrdir="/tmp/pbs.1189690.cx1/"
 Entering Link 1 = /apps/gaussian/g09_d01/g09/l1.exe PID=      2267.
  
 Copyright (c) 1988,1990,1992,1993,1995,1998,2003,2009,2013,
            Gaussian, Inc.  All Rights Reserved.
  
 This is part of the Gaussian(R) 09 program.  It is based on
 the Gaussian(R) 03 system (copyright 2003, Gaussian, Inc.),
 the Gaussian(R) 98 system (copyright 1998, Gaussian, Inc.),
 the Gaussian(R) 94 system (copyright 1995, Gaussian, Inc.),
 the Gaussian 92(TM) system (copyright 1992, Gaussian, Inc.),
 the Gaussian 90(TM) system (copyright 1990, Gaussian, Inc.),
 the Gaussian 88(TM) system (copyright 1988, Gaussian, Inc.),
 the Gaussian 86(TM) system (copyright 1986, Carnegie Mellon
 University), and the Gaussian 82(TM) system (copyright 1983,
 Carnegie Mellon University). Gaussian is a federally registered
 trademark of Gaussian, Inc.
  
 This software contains proprietary and confidential information,
 including trade secrets, belonging to Gaussian, Inc.
  
 This software is provided under written license and may be
 used, copied, transmitted, or stored only in accord with that
 written license.
  
 The following legend is applicable only to US Government
 contracts under FAR:
  
                    RESTRICTED RIGHTS LEGEND
  
 Use, reproduction and disclosure by the US Government is
 subject to restrictions as set forth in subparagraphs (a)
 and (c) of the Commercial Computer Software - Restricted
 Rights clause in FAR 52.227-19.
  
 Gaussian, Inc.
 340 Quinnipiac St., Bldg. 40, Wallingford CT 06492
  
  
 ---------------------------------------------------------------
 Warning -- This program may not be used in any manner that
 competes with the business of Gaussian, Inc. or will provide
 assistance to any competitor of Gaussian, Inc.  The licensee
 of this program is prohibited from giving any competitor of
 Gaussian, Inc. access to this program.  By using this program,
 the user acknowledges that Gaussian, Inc. is engaged in the
 business of creating and licensing software in the field of
 computational chemistry and represents and warrants to the
 licensee that it is not a competitor of Gaussian, Inc. and that
 it will not use this program in any manner prohibited above.
 ---------------------------------------------------------------
  

 Cite this work as:
 Gaussian 09, Revision D.01,
 M. J. Frisch, G. W. Trucks, H. B. Schlegel, G. E. Scuseria, 
 M. A. Robb, J. R. Cheeseman, G. Scalmani, V. Barone, B. Mennucci, 
 G. A. Petersson, H. Nakatsuji, M. Caricato, X. Li, H. P. Hratchian, 
 A. F. Izmaylov, J. Bloino, G. Zheng, J. L. Sonnenberg, M. Hada, 
 M. Ehara, K. Toyota, R. Fukuda, J. Hasegawa, M. Ishida, T. Nakajima, 
 Y. Honda, O. Kitao, H. Nakai, T. Vreven, J. A. Montgomery, Jr., 
 J. E. Peralta, F. Ogliaro, M. Bearpark, J. J. Heyd, E. Brothers, 
 K. N. Kudin, V. N. Staroverov, T. Keith, R. Kobayashi, J. Normand, 
 K. Raghavachari, A. Rendell, J. C. Burant, S. S. Iyengar, J. Tomasi, 
 M. Cossi, N. Rega, J. M. Millam, M. Klene, J. E. Knox, J. B. Cross, 
 V. Bakken, C. Adamo, J. Jaramillo, R. Gomperts, R. E. Stratmann, 
 O. Yazyev, A. J. Austin, R. Cammi, C. Pomelli, J. W. Ochterski, 
 R. L. Martin, K. Morokuma, V. G. Zakrzewski, G. A. Voth, 
 P. Salvador, J. J. Dannenberg, S. Dapprich, A. D. Daniels, 
 O. Farkas, J. B. Foresman, J. V. Ortiz, J. Cioslowski, 
 and D. J. Fox, Gaussian, Inc., Wallingford CT, 2013.
 
 ******************************************
 Gaussian 09:  ES64L-G09RevD.01 24-Apr-2013
                 7-Feb-2018 
 ******************************************
 %Chk=VXh13_1a23_SMD
 %NProcShared=12
 Will use up to   12 processors via shared memory.
 %mem=36000MB
 ----------------------------------------------------------------------
 #P M062X 6-311G(d,p) Opt(RCFC) Freq SCRF(SMD) SCF(Conver=9) Int(Grid=U
 ltraFine) Geom(Check) Guess(Read)
 ----------------------------------------------------------------------
 1/10=5,14=-1,18=20,19=15,26=4,29=2,38=1/1,3;
 2/9=110,12=2,40=1/2;
 3/5=4,6=6,7=101,11=2,14=-4,16=1,25=1,30=1,70=32201,71=1,72=1,74=-55,75=-5,116=-2/1,2,3;
 4/5=1/1;
 5/5=2,6=9,38=6/2;
 6/7=2,8=2,9=2,10=2,28=1/1;
 7//1,2,3,16;
 1/14=-1,18=20,19=15,26=4/3(2);
 2/9=110/2;
 99//99;
 2/9=110/2;
 3/5=4,6=6,7=101,11=2,14=-2,16=1,25=1,30=1,70=32205,71=1,74=-55,75=-5/1,2,3;
 4/5=5,16=3,69=1/1;
 5/5=2,6=9,38=5/2;
 7//1,2,3,16;
 1/14=-1,18=20,19=15,26=4/3(-5);
 2/9=110/2;
 6/7=2,8=2,9=2,10=2,19=2,28=1/1;
 99/9=1/99;
 Leave Link    1 at Wed Feb  7 08:51:05 2018, MaxMem=  4718592000 cpu:         0.8
 (Enter /apps/gaussian/g09_d01/g09/l101.exe)
 ------------------------------------
 Opt & Freq TBP Int from VXh13; M062X
 ------------------------------------
 Structure from the checkpoint file:  "VXh13_1a23_SMD.chk"
 Charge =  0 Multiplicity = 1
 Redundant internal coordinates found in file.
 P,0,-2.1543015588,-0.2763960627,0.2575892263
 S,0,-0.9877735654,-0.6279138078,-1.4851443083
 O,0,-2.6867454125,1.1670684542,-0.4938457529
 C,0,0.3446324349,-1.8202205673,-1.1052765158
 C,0,-1.8528628883,2.3189535697,-0.639178379
 O,0,-1.5744658873,0.6129289271,1.4975025974
 C,0,-3.8689810439,-0.878237231,0.26977377
 H,0,-3.8919819652,-1.9404824733,0.0295472669
 H,0,-4.4923501154,-0.3193987911,-0.4214965399
 H,0,-4.2372817375,-0.7468743338,1.2906839401
 H,0,-1.8846425368,2.6122935496,-1.692035689
 H,0,-0.8149372255,2.0782295339,-0.3972027074
 C,0,-2.3552875034,3.4485160583,0.2393904847
 H,0,-1.7526685844,4.3459168141,0.0805081369
 H,0,-2.2947277068,3.1721592904,1.2935370782
 H,0,-3.3939143098,3.6860408938,-0.000808309
 C,0,1.7329853122,-1.1848452311,-1.1033999619
 H,0,0.1196164888,-2.3272236773,-0.1719003899
 H,0,0.3149167863,-2.5643708373,-1.9022945024
 H,0,2.4430314068,-2.0203729603,-0.9884491369
 N,0,1.944713175,-0.1291563171,-0.1248319142
 H,0,1.9150725335,-0.7633040072,-2.0951888124
 C,0,3.1640156985,0.6589029275,-0.4029032962
 C,0,1.7746312346,-0.5565590643,1.2736929987
 C,0,1.6429831403,0.6436953706,2.2137039855
 C,0,2.8450188807,-1.5195690492,1.801119577
 H,0,0.8141224521,-1.0770025995,1.3020885413
 H,0,3.4455970164,1.1357639585,0.5374473554
 C,0,2.8539649057,1.7715688065,-1.4042196474
 C,0,4.3780173613,-0.1515684925,-0.8815547121
 H,0,0.9756841856,1.4001028551,1.7940962074
 H,0,2.6083278099,1.1118630127,2.420884015
 H,0,1.2313471897,0.3148033945,3.1717777684
 H,0,2.969962929,-2.3877904568,1.1490986511
 H,0,2.5600371302,-1.8838630112,2.7917373763
 H,0,3.8104421893,-1.0146298519,1.8971676199
 H,0,3.7478017851,2.3684976776,-1.6040911566
 H,0,2.0752940342,2.4342358563,-1.0201574372
 H,0,2.5109467282,1.3561895477,-2.3565989295
 H,0,5.26241992,0.4903847004,-0.8877274177
 H,0,4.2335418218,-0.5223371028,-1.8998790194
 H,0,4.5850441394,-1.0050264047,-0.233945738
 O,0,-1.5952379556,-1.6643069769,1.1155604593
 H,0,-1.1014133551,0.0601414193,2.1344563699
 H,0,-1.8603423381,-2.4930193105,0.699535848
 Recover connectivity data from disk.
 NAtoms=     45 NQM=       45 NQMF=       0 NMMI=      0 NMMIF=      0
                NMic=       0 NMicF=      0.
                    Isotopes and Nuclear Properties:
 (Nuclear quadrupole moments (NQMom) in fm**2, nuclear magnetic moments (NMagM)
  in nuclear magnetons)

  Atom         1           2           3           4           5           6           7           8           9          10
 IAtWgt=          31          32          16          12          12          16          12           1           1           1
 AtmWgt=  30.9737634  31.9720718  15.9949146  12.0000000  12.0000000  15.9949146  12.0000000   1.0078250   1.0078250   1.0078250
 NucSpn=           1           0           0           0           0           0           0           1           1           1
 AtZEff= -12.9400000 -13.6000000  -5.6000000  -3.6000000  -3.6000000  -5.6000000  -3.6000000  -1.0000000  -1.0000000  -1.0000000
 NQMom=    0.0000000   0.0000000   0.0000000   0.0000000   0.0000000   0.0000000   0.0000000   0.0000000   0.0000000   0.0000000
 NMagM=    1.1316000   0.0000000   0.0000000   0.0000000   0.0000000   0.0000000   0.0000000   2.7928460   2.7928460   2.7928460
 AtZNuc=  15.0000000  16.0000000   8.0000000   6.0000000   6.0000000   8.0000000   6.0000000   1.0000000   1.0000000   1.0000000

  Atom        11          12          13          14          15          16          17          18          19          20
 IAtWgt=           1           1          12           1           1           1          12           1           1           1
 AtmWgt=   1.0078250   1.0078250  12.0000000   1.0078250   1.0078250   1.0078250  12.0000000   1.0078250   1.0078250   1.0078250
 NucSpn=           1           1           0           1           1           1           0           1           1           1
 AtZEff=  -1.0000000  -1.0000000  -3.6000000  -1.0000000  -1.0000000  -1.0000000  -3.6000000  -1.0000000  -1.0000000  -1.0000000
 NQMom=    0.0000000   0.0000000   0.0000000   0.0000000   0.0000000   0.0000000   0.0000000   0.0000000   0.0000000   0.0000000
 NMagM=    2.7928460   2.7928460   0.0000000   2.7928460   2.7928460   2.7928460   0.0000000   2.7928460   2.7928460   2.7928460
 AtZNuc=   1.0000000   1.0000000   6.0000000   1.0000000   1.0000000   1.0000000   6.0000000   1.0000000   1.0000000   1.0000000

  Atom        21          22          23          24          25          26          27          28          29          30
 IAtWgt=          14           1          12          12          12          12           1           1          12          12
 AtmWgt=  14.0030740   1.0078250  12.0000000  12.0000000  12.0000000  12.0000000   1.0078250   1.0078250  12.0000000  12.0000000
 NucSpn=           2           1           0           0           0           0           1           1           0           0
 AtZEff=  -4.5500000  -1.0000000  -3.6000000  -3.6000000  -3.6000000  -3.6000000  -1.0000000  -1.0000000  -3.6000000  -3.6000000
 NQMom=    2.0440000   0.0000000   0.0000000   0.0000000   0.0000000   0.0000000   0.0000000   0.0000000   0.0000000   0.0000000
 NMagM=    0.4037610   2.7928460   0.0000000   0.0000000   0.0000000   0.0000000   2.7928460   2.7928460   0.0000000   0.0000000
 AtZNuc=   7.0000000   1.0000000   6.0000000   6.0000000   6.0000000   6.0000000   1.0000000   1.0000000   6.0000000   6.0000000

  Atom        31          32          33          34          35          36          37          38          39          40
 IAtWgt=           1           1           1           1           1           1           1           1           1           1
 AtmWgt=   1.0078250   1.0078250   1.0078250   1.0078250   1.0078250   1.0078250   1.0078250   1.0078250   1.0078250   1.0078250
 NucSpn=           1           1           1           1           1           1           1           1           1           1
 AtZEff=  -1.0000000  -1.0000000  -1.0000000  -1.0000000  -1.0000000  -1.0000000  -1.0000000  -1.0000000  -1.0000000  -1.0000000
 NQMom=    0.0000000   0.0000000   0.0000000   0.0000000   0.0000000   0.0000000   0.0000000   0.0000000   0.0000000   0.0000000
 NMagM=    2.7928460   2.7928460   2.7928460   2.7928460   2.7928460   2.7928460   2.7928460   2.7928460   2.7928460   2.7928460
 AtZNuc=   1.0000000   1.0000000   1.0000000   1.0000000   1.0000000   1.0000000   1.0000000   1.0000000   1.0000000   1.0000000

  Atom        41          42          43          44          45
 IAtWgt=           1           1          16           1           1
 AtmWgt=   1.0078250   1.0078250  15.9949146   1.0078250   1.0078250
 NucSpn=           1           1           0           1           1
 AtZEff=  -1.0000000  -1.0000000  -5.6000000  -1.0000000  -1.0000000
 NQMom=    0.0000000   0.0000000   0.0000000   0.0000000   0.0000000
 NMagM=    2.7928460   2.7928460   0.0000000   2.7928460   2.7928460
 AtZNuc=   1.0000000   1.0000000   8.0000000   1.0000000   1.0000000
 Leave Link  101 at Wed Feb  7 08:51:05 2018, MaxMem=  4718592000 cpu:         3.6
 (Enter /apps/gaussian/g09_d01/g09/l103.exe)

 GradGradGradGradGradGradGradGradGradGradGradGradGradGradGradGradGradGrad
 Berny optimization.
 Initialization pass.
 Cartesian force constants read from checkpoint file:
 "VXh13_1a23_SMD.chk"
 FormGI is forming the generalized inverse of G from B-inverse, IUseBI=4.
                           ----------------------------
                           !    Initial Parameters    !
                           ! (Angstroms and Degrees)  !
 --------------------------                            --------------------------
 ! Name  Definition              Value          Derivative Info.                !
 --------------------------------------------------------------------------------
 ! R1    R(1,2)                  2.1264         D2E/DX2 =    0.1649             !
 ! R2    R(1,3)                  1.7122         D2E/DX2 =    0.2226             !
 ! R3    R(1,6)                  1.6323         D2E/DX2 =    0.3205             !
 ! R4    R(1,7)                  1.8173         D2E/DX2 =    0.2243             !
 ! R5    R(1,43)                 1.7248         D2E/DX2 =    0.2002             !
 ! R6    R(2,4)                  1.8279         D2E/DX2 =    0.2132             !
 ! R7    R(3,5)                  1.4294         D2E/DX2 =    0.3357             !
 ! R8    R(4,17)                 1.5268         D2E/DX2 =    0.297              !
 ! R9    R(4,18)                 1.0858         D2E/DX2 =    0.3606             !
 ! R10   R(4,19)                 1.0908         D2E/DX2 =    0.3453             !
 ! R11   R(5,11)                 1.0934         D2E/DX2 =    0.3369             !
 ! R12   R(5,12)                 1.0926         D2E/DX2 =    0.3469             !
 ! R13   R(5,13)                 1.5166         D2E/DX2 =    0.2998             !
 ! R14   R(6,44)                 0.967          D2E/DX2 =    0.5264             !
 ! R15   R(7,8)                  1.0893         D2E/DX2 =    0.3518             !
 ! R16   R(7,9)                  1.0857         D2E/DX2 =    0.3606             !
 ! R17   R(7,10)                 1.0932         D2E/DX2 =    0.3449             !
 ! R18   R(13,14)                1.0926         D2E/DX2 =    0.3441             !
 ! R19   R(13,15)                1.0915         D2E/DX2 =    0.3465             !
 ! R20   R(13,16)                1.0922         D2E/DX2 =    0.3438             !
 ! R21   R(17,20)                1.1025         D2E/DX2 =    0.3167             !
 ! R22   R(17,21)                1.455          D2E/DX2 =    0.3419             !
 ! R23   R(17,22)                1.0929         D2E/DX2 =    0.3405             !
 ! R24   R(21,23)                1.4782         D2E/DX2 =    0.3291             !
 ! R25   R(21,24)                1.4722         D2E/DX2 =    0.3307             !
 ! R26   R(23,28)                1.0913         D2E/DX2 =    0.3437             !
 ! R27   R(23,29)                1.5287         D2E/DX2 =    0.2891             !
 ! R28   R(23,30)                1.5362         D2E/DX2 =    0.2762             !
 ! R29   R(24,25)                1.5302         D2E/DX2 =    0.2889             !
 ! R30   R(24,26)                1.5334         D2E/DX2 =    0.2741             !
 ! R31   R(24,27)                1.0928         D2E/DX2 =    0.3413             !
 ! R32   R(25,31)                1.0925         D2E/DX2 =    0.3434             !
 ! R33   R(25,32)                1.0927         D2E/DX2 =    0.3421             !
 ! R34   R(25,33)                1.0934         D2E/DX2 =    0.3412             !
 ! R35   R(26,34)                1.093          D2E/DX2 =    0.3425             !
 ! R36   R(26,35)                1.0933         D2E/DX2 =    0.3415             !
 ! R37   R(26,36)                1.0937         D2E/DX2 =    0.3405             !
 ! R38   R(29,37)                1.0933         D2E/DX2 =    0.3419             !
 ! R39   R(29,38)                1.0922         D2E/DX2 =    0.3425             !
 ! R40   R(29,39)                1.0942         D2E/DX2 =    0.3394             !
 ! R41   R(30,40)                1.0928         D2E/DX2 =    0.3422             !
 ! R42   R(30,41)                1.0933         D2E/DX2 =    0.3416             !
 ! R43   R(30,42)                1.0912         D2E/DX2 =    0.3477             !
 ! R44   R(43,45)                0.9644         D2E/DX2 =    0.5341             !
 ! A1    A(2,1,3)               87.1499         D2E/DX2 =    0.05               !
 ! A2    A(2,1,6)              121.181          D2E/DX2 =    0.0372             !
 ! A3    A(2,1,7)              117.9289         D2E/DX2 =    0.0285             !
 ! A4    A(2,1,43)              95.5573         D2E/DX2 =    0.0495             !
 ! A5    A(3,1,6)               89.113          D2E/DX2 =    0.0602             !
 ! A6    A(3,1,7)               89.3541         D2E/DX2 =    0.089              !
 ! A7    A(6,1,7)              120.6975         D2E/DX2 =    0.0279             !
 ! A8    A(6,1,43)              86.8712         D2E/DX2 =    0.0599             !
 ! A9    A(7,1,43)              92.0634         D2E/DX2 =    0.0809             !
 ! A10   A(1,2,4)              109.7185         D2E/DX2 =    0.6612             !
 ! A11   A(1,3,5)              122.8574         D2E/DX2 =    0.3487             !
 ! A12   A(2,4,17)             113.056          D2E/DX2 =    0.2649             !
 ! A13   A(2,4,18)             109.4008         D2E/DX2 =    0.0673             !
 ! A14   A(2,4,19)             105.8598         D2E/DX2 =    0.0718             !
 ! A15   A(17,4,18)            112.4395         D2E/DX2 =    0.0785             !
 ! A16   A(17,4,19)            108.0325         D2E/DX2 =    0.0926             !
 ! A17   A(18,4,19)            107.6928         D2E/DX2 =    0.0283             !
 ! A18   A(3,5,11)             107.2852         D2E/DX2 =    0.0627             !
 ! A19   A(3,5,12)             110.7388         D2E/DX2 =    0.0692             !
 ! A20   A(3,5,13)             110.3657         D2E/DX2 =    0.1669             !
 ! A21   A(11,5,12)            107.4557         D2E/DX2 =    0.0282             !
 ! A22   A(11,5,13)            110.3869         D2E/DX2 =    0.0751             !
 ! A23   A(12,5,13)            110.5174         D2E/DX2 =    0.0723             !
 ! A24   A(1,6,44)             111.2643         D2E/DX2 =    0.1476             !
 ! A25   A(1,7,8)              109.9618         D2E/DX2 =    0.1005             !
 ! A26   A(1,7,9)              111.5316         D2E/DX2 =    0.0961             !
 ! A27   A(1,7,10)             106.5193         D2E/DX2 =    0.0864             !
 ! A28   A(8,7,9)              110.4506         D2E/DX2 =    0.049              !
 ! A29   A(8,7,10)             108.4213         D2E/DX2 =    0.0391             !
 ! A30   A(9,7,10)             109.8344         D2E/DX2 =    0.0418             !
 ! A31   A(5,13,14)            110.1681         D2E/DX2 =    0.0955             !
 ! A32   A(5,13,15)            110.6418         D2E/DX2 =    0.1005             !
 ! A33   A(5,13,16)            110.463          D2E/DX2 =    0.1029             !
 ! A34   A(14,13,15)           108.5309         D2E/DX2 =    0.0479             !
 ! A35   A(14,13,16)           108.2946         D2E/DX2 =    0.0478             !
 ! A36   A(15,13,16)           108.6774         D2E/DX2 =    0.0499             !
 ! A37   A(4,17,20)            105.6869         D2E/DX2 =    0.0764             !
 ! A38   A(4,17,21)            115.7911         D2E/DX2 =    0.3647             !
 ! A39   A(4,17,22)            108.1124         D2E/DX2 =    0.0917             !
 ! A40   A(20,17,21)           112.7081         D2E/DX2 =    0.0862             !
 ! A41   A(20,17,22)           106.2375         D2E/DX2 =    0.0228             !
 ! A42   A(21,17,22)           107.8324         D2E/DX2 =    0.0702             !
 ! A43   A(17,21,23)           112.3545         D2E/DX2 =    0.151              !
 ! A44   A(17,21,24)           114.2958         D2E/DX2 =    0.1402             !
 ! A45   A(23,21,24)           115.3889         D2E/DX2 =    0.1494             !
 ! A46   A(21,23,28)           106.4808         D2E/DX2 =    0.0275             !
 ! A47   A(21,23,29)           110.1185         D2E/DX2 =    0.0928             !
 ! A48   A(21,23,30)           115.4178         D2E/DX2 =    0.0933             !
 ! A49   A(28,23,29)           107.3798         D2E/DX2 =    0.0271             !
 ! A50   A(28,23,30)           107.1647         D2E/DX2 =    0.0287             !
 ! A51   A(29,23,30)           109.8898         D2E/DX2 =    0.0945             !
 ! A52   A(21,24,25)           111.4552         D2E/DX2 =    0.0956             !
 ! A53   A(21,24,26)           115.3672         D2E/DX2 =    0.0929             !
 ! A54   A(21,24,27)           105.336          D2E/DX2 =    0.0281             !
 ! A55   A(25,24,26)           109.96           D2E/DX2 =    0.095              !
 ! A56   A(25,24,27)           106.3778         D2E/DX2 =    0.0291             !
 ! A57   A(26,24,27)           107.7888         D2E/DX2 =    0.0272             !
 ! A58   A(24,25,31)           111.0808         D2E/DX2 =    0.0981             !
 ! A59   A(24,25,32)           112.119          D2E/DX2 =    0.1047             !
 ! A60   A(24,25,33)           109.5557         D2E/DX2 =    0.1003             !
 ! A61   A(31,25,32)           108.4089         D2E/DX2 =    0.0508             !
 ! A62   A(31,25,33)           108.3525         D2E/DX2 =    0.0481             !
 ! A63   A(32,25,33)           107.1776         D2E/DX2 =    0.0501             !
 ! A64   A(24,26,34)           111.9313         D2E/DX2 =    0.1016             !
 ! A65   A(24,26,35)           109.8141         D2E/DX2 =    0.0971             !
 ! A66   A(24,26,36)           110.8812         D2E/DX2 =    0.0983             !
 ! A67   A(34,26,35)           107.7973         D2E/DX2 =    0.049              !
 ! A68   A(34,26,36)           108.5555         D2E/DX2 =    0.0507             !
 ! A69   A(35,26,36)           107.7193         D2E/DX2 =    0.0481             !
 ! A70   A(23,29,37)           110.5699         D2E/DX2 =    0.1015             !
 ! A71   A(23,29,38)           110.8472         D2E/DX2 =    0.1007             !
 ! A72   A(23,29,39)           110.941          D2E/DX2 =    0.106              !
 ! A73   A(37,29,38)           108.4147         D2E/DX2 =    0.0493             !
 ! A74   A(37,29,39)           107.7256         D2E/DX2 =    0.05               !
 ! A75   A(38,29,39)           108.2335         D2E/DX2 =    0.05               !
 ! A76   A(23,30,40)           109.3534         D2E/DX2 =    0.0984             !
 ! A77   A(23,30,41)           111.3897         D2E/DX2 =    0.1014             !
 ! A78   A(23,30,42)           112.1896         D2E/DX2 =    0.1013             !
 ! A79   A(40,30,41)           107.5109         D2E/DX2 =    0.0484             !
 ! A80   A(40,30,42)           108.0145         D2E/DX2 =    0.049              !
 ! A81   A(41,30,42)           108.2172         D2E/DX2 =    0.0517             !
 ! A82   A(1,43,45)            112.8156         D2E/DX2 =    0.1275             !
 ! A83   L(3,1,43,2,-1)        182.7072         D2E/DX2 =    0.0339             !
 ! A84   L(3,1,43,2,-2)        176.9358         D2E/DX2 =    0.0671             !
 ! D1    D(3,1,2,4)            160.1879         D2E/DX2 =    0.0615             !
 ! D2    D(6,1,2,4)             72.9532         D2E/DX2 =    0.0297             !
 ! D3    D(7,1,2,4)           -112.0568         D2E/DX2 =    0.033              !
 ! D4    D(43,1,2,4)           -16.7479         D2E/DX2 =    0.0479             !
 ! D5    D(2,1,3,5)            -73.1519         D2E/DX2 =    0.0208             !
 ! D6    D(6,1,3,5)             48.1278         D2E/DX2 =    0.0193             !
 ! D7    D(7,1,3,5)            168.8432         D2E/DX2 =    0.013              !
 ! D8    D(5,3,43,45)         -139.6564         D2E/DX2 =    0.011              !
 ! D9    D(2,1,6,44)           -89.2244         D2E/DX2 =    0.0253             !
 ! D10   D(3,1,6,44)          -175.3542         D2E/DX2 =    0.0316             !
 ! D11   D(7,1,6,44)            95.9238         D2E/DX2 =    0.0206             !
 ! D12   D(43,1,6,44)            5.3805         D2E/DX2 =    0.0277             !
 ! D13   D(2,1,7,8)             53.8174         D2E/DX2 =    0.0172             !
 ! D14   D(2,1,7,9)            -69.0657         D2E/DX2 =    0.0177             !
 ! D15   D(2,1,7,10)           171.1011         D2E/DX2 =    0.0178             !
 ! D16   D(3,1,7,8)            140.2479         D2E/DX2 =    0.0189             !
 ! D17   D(3,1,7,9)             17.3649         D2E/DX2 =    0.0196             !
 ! D18   D(3,1,7,10)          -102.4683         D2E/DX2 =    0.0187             !
 ! D19   D(6,1,7,8)           -131.1672         D2E/DX2 =    0.02               !
 ! D20   D(6,1,7,9)            105.9497         D2E/DX2 =    0.02               !
 ! D21   D(6,1,7,10)           -13.8835         D2E/DX2 =    0.0197             !
 ! D22   D(43,1,7,8)           -43.5816         D2E/DX2 =    0.0208             !
 ! D23   D(43,1,7,9)          -166.4647         D2E/DX2 =    0.0211             !
 ! D24   D(43,1,7,10)           73.7021         D2E/DX2 =    0.0203             !
 ! D25   D(2,1,43,45)          -65.37           D2E/DX2 =    0.0157             !
 ! D26   D(6,1,43,45)          173.5893         D2E/DX2 =    0.0128             !
 ! D27   D(7,1,43,45)           52.9501         D2E/DX2 =    0.011              !
 ! D28   D(1,2,4,17)          -110.0464         D2E/DX2 =    0.0794             !
 ! D29   D(1,2,4,18)            16.0902         D2E/DX2 =    0.0245             !
 ! D30   D(1,2,4,19)           131.8762         D2E/DX2 =    0.0361             !
 ! D31   D(1,3,5,11)           128.2512         D2E/DX2 =    0.0286             !
 ! D32   D(1,3,5,12)            11.2667         D2E/DX2 =    0.0231             !
 ! D33   D(1,3,5,13)          -111.4389         D2E/DX2 =    0.0266             !
 ! D34   D(2,4,17,20)         -173.1748         D2E/DX2 =    0.0333             !
 ! D35   D(2,4,17,21)           61.3013         D2E/DX2 =    0.0358             !
 ! D36   D(2,4,17,22)          -59.7566         D2E/DX2 =    0.022              !
 ! D37   D(18,4,17,20)          62.3285         D2E/DX2 =    0.0157             !
 ! D38   D(18,4,17,21)         -63.1954         D2E/DX2 =    0.0157             !
 ! D39   D(18,4,17,22)         175.7467         D2E/DX2 =    0.0212             !
 ! D40   D(19,4,17,20)         -56.3725         D2E/DX2 =    0.0169             !
 ! D41   D(19,4,17,21)         178.1036         D2E/DX2 =    0.0207             !
 ! D42   D(19,4,17,22)          57.0457         D2E/DX2 =    0.0165             !
 ! D43   D(3,5,13,14)         -176.5689         D2E/DX2 =    0.0168             !
 ! D44   D(3,5,13,15)           63.4201         D2E/DX2 =    0.0171             !
 ! D45   D(3,5,13,16)          -56.966          D2E/DX2 =    0.0173             !
 ! D46   D(11,5,13,14)         -58.1394         D2E/DX2 =    0.0155             !
 ! D47   D(11,5,13,15)        -178.1503         D2E/DX2 =    0.0151             !
 ! D48   D(11,5,13,16)          61.4635         D2E/DX2 =    0.0163             !
 ! D49   D(12,5,13,14)          60.5961         D2E/DX2 =    0.0157             !
 ! D50   D(12,5,13,15)         -59.4149         D2E/DX2 =    0.0167             !
 ! D51   D(12,5,13,16)        -179.801          D2E/DX2 =    0.0156             !
 ! D52   D(4,17,21,23)        -165.4969         D2E/DX2 =    0.0281             !
 ! D53   D(4,17,21,24)          60.5318         D2E/DX2 =    0.0336             !
 ! D54   D(20,17,21,23)         72.6498         D2E/DX2 =    0.0279             !
 ! D55   D(20,17,21,24)        -61.3215         D2E/DX2 =    0.0238             !
 ! D56   D(22,17,21,23)        -44.2886         D2E/DX2 =    0.0279             !
 ! D57   D(22,17,21,24)       -178.2599         D2E/DX2 =    0.035              !
 ! D58   D(17,21,23,28)       -158.6951         D2E/DX2 =    0.0181             !
 ! D59   D(17,21,23,29)         85.1935         D2E/DX2 =    0.0251             !
 ! D60   D(17,21,23,30)        -39.9221         D2E/DX2 =    0.0266             !
 ! D61   D(24,21,23,28)        -25.2533         D2E/DX2 =    0.0162             !
 ! D62   D(24,21,23,29)       -141.3647         D2E/DX2 =    0.0233             !
 ! D63   D(24,21,23,30)         93.5196         D2E/DX2 =    0.0284             !
 ! D64   D(17,21,24,25)       -164.9735         D2E/DX2 =    0.0317             !
 ! D65   D(17,21,24,26)         68.7092         D2E/DX2 =    0.0261             !
 ! D66   D(17,21,24,27)        -50.0169         D2E/DX2 =    0.0212             !
 ! D67   D(23,21,24,25)         62.4827         D2E/DX2 =    0.0261             !
 ! D68   D(23,21,24,26)        -63.8346         D2E/DX2 =    0.0236             !
 ! D69   D(23,21,24,27)        177.4393         D2E/DX2 =    0.0195             !
 ! D70   D(21,23,29,37)        179.1691         D2E/DX2 =    0.0204             !
 ! D71   D(21,23,29,38)         58.9076         D2E/DX2 =    0.0195             !
 ! D72   D(21,23,29,39)        -61.3718         D2E/DX2 =    0.0197             !
 ! D73   D(28,23,29,37)         63.6231         D2E/DX2 =    0.0135             !
 ! D74   D(28,23,29,38)        -56.6384         D2E/DX2 =    0.0134             !
 ! D75   D(28,23,29,39)       -176.9178         D2E/DX2 =    0.013              !
 ! D76   D(30,23,29,37)        -52.6144         D2E/DX2 =    0.0181             !
 ! D77   D(30,23,29,38)       -172.8759         D2E/DX2 =    0.0187             !
 ! D78   D(30,23,29,39)         66.8447         D2E/DX2 =    0.0182             !
 ! D79   D(21,23,30,40)       -170.1168         D2E/DX2 =    0.0188             !
 ! D80   D(21,23,30,41)         71.1929         D2E/DX2 =    0.0187             !
 ! D81   D(21,23,30,42)        -50.2979         D2E/DX2 =    0.0177             !
 ! D82   D(28,23,30,40)        -51.7235         D2E/DX2 =    0.0132             !
 ! D83   D(28,23,30,41)       -170.4137         D2E/DX2 =    0.0138             !
 ! D84   D(28,23,30,42)         68.0955         D2E/DX2 =    0.0132             !
 ! D85   D(29,23,30,40)         64.6493         D2E/DX2 =    0.0173             !
 ! D86   D(29,23,30,41)        -54.041          D2E/DX2 =    0.0179             !
 ! D87   D(29,23,30,42)       -175.5317         D2E/DX2 =    0.0178             !
 ! D88   D(21,24,25,31)         43.7932         D2E/DX2 =    0.019              !
 ! D89   D(21,24,25,32)        -77.674          D2E/DX2 =    0.0198             !
 ! D90   D(21,24,25,33)        163.465          D2E/DX2 =    0.0199             !
 ! D91   D(26,24,25,31)        173.0255         D2E/DX2 =    0.0176             !
 ! D92   D(26,24,25,32)         51.5583         D2E/DX2 =    0.0178             !
 ! D93   D(26,24,25,33)        -67.3027         D2E/DX2 =    0.017              !
 ! D94   D(27,24,25,31)        -70.518          D2E/DX2 =    0.0134             !
 ! D95   D(27,24,25,32)        168.0147         D2E/DX2 =    0.0138             !
 ! D96   D(27,24,25,33)         49.1538         D2E/DX2 =    0.0134             !
 ! D97   D(21,24,26,34)        -52.5823         D2E/DX2 =    0.019              !
 ! D98   D(21,24,26,35)       -172.2718         D2E/DX2 =    0.019              !
 ! D99   D(21,24,26,36)         68.801          D2E/DX2 =    0.0194             !
 ! D100  D(25,24,26,34)       -179.6581         D2E/DX2 =    0.0185             !
 ! D101  D(25,24,26,35)         60.6524         D2E/DX2 =    0.0177             !
 ! D102  D(25,24,26,36)        -58.2747         D2E/DX2 =    0.0187             !
 ! D103  D(27,24,26,34)         64.7741         D2E/DX2 =    0.0136             !
 ! D104  D(27,24,26,35)        -54.9154         D2E/DX2 =    0.0136             !
 ! D105  D(27,24,26,36)       -173.8425         D2E/DX2 =    0.0142             !
 --------------------------------------------------------------------------------
 Trust Radius=3.00D-01 FncErr=1.00D-07 GrdErr=1.00D-06
 Number of steps in this run=    243 maximum allowed number of steps=    270.
 GradGradGradGradGradGradGradGradGradGradGradGradGradGradGradGradGradGrad

 Leave Link  103 at Wed Feb  7 08:51:05 2018, MaxMem=  4718592000 cpu:         0.6
 (Enter /apps/gaussian/g09_d01/g09/l202.exe)
                          Input orientation:                          
 ---------------------------------------------------------------------
 Center     Atomic      Atomic             Coordinates (Angstroms)
 Number     Number       Type             X           Y           Z
 ---------------------------------------------------------------------
      1         15           0       -2.154302   -0.276396    0.257589
      2         16           0       -0.987774   -0.627914   -1.485144
      3          8           0       -2.686745    1.167068   -0.493846
      4          6           0        0.344632   -1.820221   -1.105277
      5          6           0       -1.852863    2.318954   -0.639178
      6          8           0       -1.574466    0.612929    1.497503
      7          6           0       -3.868981   -0.878237    0.269774
      8          1           0       -3.891982   -1.940482    0.029547
      9          1           0       -4.492350   -0.319399   -0.421497
     10          1           0       -4.237282   -0.746874    1.290684
     11          1           0       -1.884643    2.612294   -1.692036
     12          1           0       -0.814937    2.078230   -0.397203
     13          6           0       -2.355288    3.448516    0.239390
     14          1           0       -1.752669    4.345917    0.080508
     15          1           0       -2.294728    3.172159    1.293537
     16          1           0       -3.393914    3.686041   -0.000808
     17          6           0        1.732985   -1.184845   -1.103400
     18          1           0        0.119616   -2.327224   -0.171900
     19          1           0        0.314917   -2.564371   -1.902295
     20          1           0        2.443031   -2.020373   -0.988449
     21          7           0        1.944713   -0.129156   -0.124832
     22          1           0        1.915073   -0.763304   -2.095189
     23          6           0        3.164016    0.658903   -0.402903
     24          6           0        1.774631   -0.556559    1.273693
     25          6           0        1.642983    0.643695    2.213704
     26          6           0        2.845019   -1.519569    1.801120
     27          1           0        0.814122   -1.077003    1.302089
     28          1           0        3.445597    1.135764    0.537447
     29          6           0        2.853965    1.771569   -1.404220
     30          6           0        4.378017   -0.151568   -0.881555
     31          1           0        0.975684    1.400103    1.794096
     32          1           0        2.608328    1.111863    2.420884
     33          1           0        1.231347    0.314803    3.171778
     34          1           0        2.969963   -2.387790    1.149099
     35          1           0        2.560037   -1.883863    2.791737
     36          1           0        3.810442   -1.014630    1.897168
     37          1           0        3.747802    2.368498   -1.604091
     38          1           0        2.075294    2.434236   -1.020157
     39          1           0        2.510947    1.356190   -2.356599
     40          1           0        5.262420    0.490385   -0.887727
     41          1           0        4.233542   -0.522337   -1.899879
     42          1           0        4.585044   -1.005026   -0.233946
     43          8           0       -1.595238   -1.664307    1.115560
     44          1           0       -1.101413    0.060141    2.134456
     45          1           0       -1.860342   -2.493019    0.699536
 ---------------------------------------------------------------------
                    Distance matrix (angstroms):
                    1          2          3          4          5
     1  P    0.000000
     2  S    2.126375   0.000000
     3  O    1.712233   2.662919   0.000000
     4  C    3.238127   1.827895   4.299651   0.000000
     5  C    2.762408   3.185603   1.429448   4.709458   0.000000
     6  O    1.632328   3.283303   2.347276   4.046926   2.748351
     7  C    1.817275   3.382862   2.482755   4.531295   3.887538
     8  H    2.416758   3.528676   3.373931   4.387618   4.769486
     9  H    2.435052   3.675403   2.339878   5.110423   3.738339
    10  H    2.372223   4.275357   3.041691   5.280780   4.336949
    11  H    3.495466   3.368400   2.041495   4.996112   1.093420
    12  H    2.786918   2.921763   2.084039   4.128424   1.092607
    13  C    3.730375   4.632645   2.419195   6.071020   1.516649
    14  H    4.643107   5.270230   3.362657   6.620121   2.153269
    15  H    3.603532   4.885668   2.714554   6.135502   2.158378
    16  H    4.159846   5.157807   2.662404   6.746517   2.156683
    17  C    4.217650   2.803289   5.043518   1.526836   5.034920
    18  H    3.092096   2.416315   4.493261   1.085760   5.069121
    19  H    3.999621   2.370840   4.991727   1.090816   5.490136
    20  H    5.072429   3.735783   6.059623   2.111158   6.116081
    21  N    4.119447   3.270885   4.823565   2.526109   4.547458
    22  H    4.725722   2.969343   5.240932   2.136184   5.081104
    23  C    5.440178   4.479341   5.873492   3.819464   5.289675
    24  C    4.067858   3.904761   5.098918   3.049792   5.008629
    25  C    4.369476   4.713740   5.133351   4.332693   4.813145
    26  C    5.377841   5.126878   6.563940   3.845707   6.539067
    27  H    3.247074   3.349205   4.529604   2.562850   4.734326
    28  H    5.781988   5.182298   6.218534   4.588286   5.555003
    29  C    5.660256   4.530234   5.647448   4.391704   4.799911
    30  C    6.632075   5.420603   7.197221   4.370657   6.707167
    31  H    3.868890   4.326828   4.324624   4.378935   3.842628
    32  H    5.412000   5.587112   6.044543   5.114219   5.542858
    33  H    4.506066   5.244057   5.432734   4.861870   5.296448
    34  H    5.613454   5.069525   6.880017   3.506666   6.972161
    35  H    5.588457   5.697024   6.901592   4.483167   6.993464
    36  H    6.229878   5.883235   7.258801   4.655694   7.044065
    37  H    6.730241   5.605203   6.639238   5.419939   5.683393
    38  H    5.183593   4.356071   4.955778   4.593782   3.948272
    39  H    5.591409   4.115476   5.524638   4.043304   4.787409
    40  H    7.543703   6.377493   7.987633   5.437909   7.350693
    41  H    6.746829   5.238825   7.260950   4.176064   6.834224
    42  H    6.796417   5.723985   7.593712   4.405094   7.256701
    43  O    1.724808   2.864749   3.434860   2.952884   4.360257
    44  H    2.178178   3.686169   3.262903   4.015306   3.655128
    45  H    2.279287   3.002136   3.937429   2.927784   4.994727
                    6          7          8          9         10
     6  O    0.000000
     7  C    2.999282   0.000000
     8  H    3.747757   1.089313   0.000000
     9  H    3.614670   1.085700   1.786559   0.000000
    10  H    2.997070   1.093233   1.770423   1.783075   0.000000
    11  H    3.777145   4.468792   5.265076   4.124225   5.071049
    12  H    2.512747   4.302643   5.079406   4.390054   4.747906
    13  C    3.198919   4.583992   5.607742   4.381893   4.716823
    14  H    3.996852   5.639715   6.640638   5.433510   5.794338
    15  H    2.666466   4.464535   5.503453   4.467870   4.374054
    16  H    3.872899   4.596905   5.648607   4.174576   4.693608
    17  C    4.575579   5.775954   5.787470   6.322088   6.447290
    18  H    3.781708   4.266562   4.035229   5.036258   4.859961
    19  H    5.022312   5.006588   4.671108   5.508401   5.849865
    20  H    5.408745   6.536750   6.416782   7.163398   7.172366
    21  N    3.945539   5.875021   6.113243   6.446703   6.371995
    22  H    5.194067   6.249923   6.294612   6.637271   7.022526
    23  C    5.105572   7.230376   7.531993   7.718637   7.721635
    24  C    3.554468   5.741227   5.964365   6.496535   6.014949
    25  C    3.296342   6.039610   6.487246   6.746417   6.112542
    26  C    4.916460   6.916222   6.978740   7.759988   7.142589
    27  H    2.932475   4.799650   4.950998   5.630574   5.062193
    28  H    5.137713   7.591502   7.972535   8.126997   7.945962
    29  C    5.419727   7.417663   7.832165   7.701054   7.993175
    30  C    6.455728   8.358624   8.510183   8.883875   8.904852
    31  H    2.685307   5.566433   6.161762   6.145318   5.660207
    32  H    4.312462   7.109381   7.568972   7.781212   7.182940
    33  H    3.280955   5.988182   6.419379   6.787823   5.879760
    34  H    5.456880   7.058549   6.967049   7.901337   7.393039
    35  H    5.000313   6.978815   7.018650   7.906237   7.053329
    36  H    5.639673   7.851150   7.979508   8.648463   8.074985
    37  H    6.405345   8.489290   8.922017   8.747767   9.046923
    38  H    4.793383   6.926096   7.473180   7.146667   7.436939
    39  H    5.665433   7.252170   7.586780   7.456432   7.953876
    40  H    7.242054   9.305666   9.515965   9.799421   9.824491
    41  H    6.823781   8.395531   8.471007   8.852570   9.054555
    42  H    6.599641   8.469968   8.532554   9.105182   8.956817
    43  O    2.309137   2.550131   2.555529   3.544655   2.802275
    44  H    0.966986   3.466558   4.027457   4.263261   3.346176
    45  H    3.219533   2.612823   2.209466   3.592883   3.008042
                   11         12         13         14         15
    11  H    0.000000
    12  H    1.762409   0.000000
    13  C    2.156660   2.157687   0.000000
    14  H    2.482897   2.499991   1.092576   0.000000
    15  H    3.065170   2.499012   1.091451   1.772843   0.000000
    16  H    2.508203   3.064851   1.092181   1.770801   1.774152
    17  C    5.277498   4.199795   6.323377   6.643851   6.399318
    18  H    5.543167   4.509121   6.297101   6.935414   6.182215
    19  H    5.628510   5.009552   6.918932   7.480541   7.066213
    20  H    6.378510   5.269011   7.378360   7.699105   7.390278
    21  N    4.963430   3.544349   5.605569   5.808535   5.557276
    22  H    5.098532   4.290737   6.436277   6.655082   6.685339
    23  C    5.564759   4.224522   6.217491   6.164539   6.244377
    24  C    5.676923   4.054611   5.845223   6.156282   5.519367
    25  C    5.619103   3.862136   5.267931   5.457785   4.769214
    26  C    7.186384   5.583194   7.359623   7.648736   6.977603
    27  H    5.464341   3.936612   5.626260   6.122804   5.265017
    28  H    5.963404   4.462506   6.252033   6.126650   6.137581
    29  C    4.821209   3.816932   5.714011   5.482039   5.979012
    30  C    6.893237   5.672158   7.717158   7.664088   7.765547
    31  H    4.669474   2.909978   4.208144   4.365560   3.753177
    32  H    6.273291   4.538086   5.903926   5.912254   5.436514
    33  H    6.216473   4.476000   5.593121   5.891534   4.911769
    34  H    7.525960   6.054903   7.952882   8.293850   7.658386
    35  H    7.750795   6.103931   7.688248   8.047382   7.167755
    36  H    7.646630   6.018642   7.790001   7.936241   7.427427
    37  H    5.638404   4.728575   6.466263   6.083028   6.749391
    38  H    4.020475   2.977961   4.716490   4.418064   4.999480
    39  H    4.619594   3.927096   5.898917   5.749467   6.302043
    40  H    7.498661   6.300487   8.249267   8.063131   8.310253
    41  H    6.877593   5.874362   7.984787   7.965962   8.152638
    42  H    7.554328   6.220363   8.259921   8.300487   8.192273
    43  O    5.124028   4.111435   5.242739   6.100730   4.890027
    44  H    4.665723   3.250238   4.079774   4.796948   3.437412
    45  H    5.637768   4.815810   5.979845   6.867739   5.712773
                   16         17         18         19         20
    16  H    0.000000
    17  C    7.157258   0.000000
    18  H    6.966600   2.185333   0.000000
    19  H    7.512571   2.133598   1.757454   0.000000
    20  H    8.222441   1.102491   2.481767   2.379058   0.000000
    21  N    6.562930   1.454958   2.857393   3.427226   2.137956
    22  H    7.236604   1.092931   3.060808   2.416930   1.756085
    23  C    7.234065   2.436791   4.270677   4.555769   2.835701
    24  C    6.807193   2.459075   2.822068   4.031001   2.776112
    25  C    6.287310   3.788778   4.103427   5.384876   4.241594
    26  C    8.322836   3.128081   3.460192   4.605247   2.862532
    27  H    6.487811   2.577269   2.053785   3.567848   2.964769
    28  H    7.319327   3.318229   4.853618   5.426278   3.646190
    29  C    6.683619   3.176078   5.078914   5.049279   3.836737
    30  C    8.712398   2.848345   4.834363   4.834492   2.692216
    31  H    5.247913   3.956128   4.300111   5.460492   4.647077
    32  H    6.965479   4.296705   4.974287   6.120809   4.632686
    33  H    6.543973   4.558260   4.404138   5.905565   4.922267
    34  H    8.872015   2.837418   3.142162   4.048636   2.231986
    35  H    8.618102   4.042862   3.864631   5.247627   3.784460
    36  H    8.809164   3.653520   4.430140   5.390390   3.347852
    37  H    7.437106   4.115389   6.104482   6.017210   4.619916
    38  H    5.702484   3.636187   5.216868   5.372445   4.469874
    39  H    6.770919   2.938127   4.904987   4.516606   3.643847
    40  H    9.269896   3.912776   5.907601   5.902429   3.776639
    41  H    8.915997   2.706673   4.813305   4.418770   2.506141
    42  H    9.258739   2.987060   4.657478   4.842410   2.487654
    43  O    5.753932   4.028739   2.244491   3.683240   4.567413
    44  H    4.791875   4.479679   3.536906   5.018906   5.161799
    45  H    6.404929   4.227754   2.169591   3.392103   4.646688
                   21         22         23         24         25
    21  N    0.000000
    22  H    2.070103   0.000000
    23  C    1.478195   2.538969   0.000000
    24  C    1.472234   3.378140   2.493735   0.000000
    25  C    2.481349   4.540951   3.026616   1.530217   0.000000
    26  C    2.540293   4.076513   3.115320   1.533394   2.508950
    27  H    2.052498   3.584967   3.382656   1.092815   2.116330
    28  H    2.071543   3.588835   1.091304   2.489607   2.510256
    29  C    2.465021   2.790078   1.528657   3.708956   3.978435
    30  C    2.548353   2.813046   1.536155   3.403929   4.206362
    31  H    2.638169   4.548551   3.188256   2.176617   1.092479
    32  H    2.908811   4.938802   2.913372   2.189687   1.092701
    33  H    3.402003   5.419477   4.078230   2.158044   1.093398
    34  H    2.788452   3.778512   3.424720   2.190377   3.476229
    35  H    3.458901   5.055065   4.127490   2.164037   2.750211
    36  H    2.890241   4.426568   2.917003   2.177860   2.747384
    37  H    3.417252   3.661728   2.169418   4.553131   4.688365
    38  H    2.718389   3.377221   2.172124   3.781138   3.721665
    39  H    2.740010   2.217127   2.174772   4.168907   4.706238
    40  H    3.460205   3.772855   2.160267   4.234678   4.768931
    41  H    2.923033   2.339126   2.186356   4.014844   4.999219
    42  H    2.783954   3.263649   2.194659   3.220639   4.167133
    43  O    4.052964   4.841797   5.509404   3.550793   4.125393
    44  H    3.797250   5.259957   4.999059   3.064778   2.806871
    45  H    4.554764   5.005613   6.032757   4.158433   4.940139
                   26         27         28         29         30
    26  C    0.000000
    27  H    2.137624   0.000000
    28  H    3.001392   3.522168   0.000000
    29  C    4.594112   4.427123   2.127051   0.000000
    30  C    3.379090   4.280896   2.130774   2.508859   0.000000
    31  H    3.466835   2.530657   2.783794   3.727620   4.598115
    32  H    2.713773   3.043355   2.061292   3.889340   3.954006
    33  H    2.801350   2.367897   3.537877   5.069004   5.152528
    34  H    1.092955   2.527690   3.607739   4.881922   3.332695
    35  H    1.093274   2.432755   3.870941   5.572668   4.449603
    36  H    1.093723   3.055477   2.570242   4.424580   2.964509
    37  H    5.246669   5.378088   2.489407   1.093260   2.696287
    38  H    4.917789   4.394562   2.447426   1.092227   3.465275
    39  H    5.066381   4.710162   3.049207   1.094179   2.816921
    40  H    4.136864   5.199937   2.397599   2.776482   1.092845
    41  H    4.076746   4.717275   3.051347   2.722300   1.093310
    42  H    2.726524   4.072399   2.544871   3.475005   1.091168
    43  O    4.495200   2.486913   5.795225   6.160352   6.477393
    44  H    4.263910   2.378069   4.937885   5.576399   6.258219
    45  H    4.929657   3.085601   6.430189   6.696058   6.848312
                   31         32         33         34         35
    31  H    0.000000
    32  H    1.772419   0.000000
    33  H    1.772356   1.759324   0.000000
    34  H    4.329123   3.741095   3.797108   0.000000
    35  H    3.780198   3.018980   2.596918   1.766421   0.000000
    36  H    3.725240   2.498265   3.169188   1.775270   1.766164
    37  H    4.491114   4.367832   5.775736   5.550438   6.230302
    38  H    3.193524   3.724723   4.772480   5.362653   5.780268
    39  H    4.425746   4.784718   5.769299   5.149563   6.083232
    40  H    5.137691   4.286881   5.723632   4.205700   5.145715
    41  H    5.287236   4.897032   5.952788   3.791149   5.163878
    42  H    4.788014   3.928963   4.958648   2.536402   3.745366
    43  O    4.057174   5.203936   4.016776   4.622295   4.485988
    44  H    2.495130   3.866567   2.565670   4.851742   4.197308
    45  H    4.939383   5.993933   4.853287   4.852322   4.928299
                   36         37         38         39         40
    36  H    0.000000
    37  H    4.869116   0.000000
    38  H    4.839029   1.772733   0.000000
    39  H    5.040238   1.766592   1.771455   0.000000
    40  H    3.482664   2.516854   3.735487   3.236944   0.000000
    41  H    3.852133   2.946245   3.764740   2.589361   1.763135
    42  H    2.267542   3.736166   4.329607   3.792476   1.767066
    43  O    5.500397   7.225517   5.901877   6.167661   7.462126
    44  H    5.033663   6.543709   5.067483   5.907492   7.058121
    45  H    5.981451   7.771250   6.536392   6.577578   7.883771
                   41         42         43         44         45
    41  H    0.000000
    42  H    1.769711   0.000000
    43  O    6.661204   6.360165   0.000000
    44  H    6.713933   6.251377   2.062943   0.000000
    45  H    6.912016   6.680458   0.964428   3.025492   0.000000
 Stoichiometry    C11H28NO3PS
 Framework group  C1[X(C11H28NO3PS)]
 Deg. of freedom   129
 Full point group                 C1      NOp   1
 RotChk:  IX=0 Diff= 7.94D-16
 Largest Abelian subgroup         C1      NOp   1
 Largest concise Abelian subgroup C1      NOp   1
                         Standard orientation:                         
 ---------------------------------------------------------------------
 Center     Atomic      Atomic             Coordinates (Angstroms)
 Number     Number       Type             X           Y           Z
 ---------------------------------------------------------------------
      1         15           0       -2.122649   -0.605104    0.049256
      2         16           0       -0.871109   -0.447487   -1.662549
      3          8           0       -2.799594    0.898156   -0.413017
      4          6           0        0.581172   -1.540199   -1.467457
      5          6           0       -2.104036    2.138738   -0.269928
      6          8           0       -1.689563    0.057668    1.476723
      7          6           0       -3.753572   -1.379680   -0.157165
      8          1           0       -3.643408   -2.362357   -0.614127
      9          1           0       -4.417788   -0.758070   -0.749754
     10          1           0       -4.165202   -1.509923    0.847204
     11          1           0       -2.138835    2.644346   -1.238802
     12          1           0       -1.052608    1.967064   -0.027403
     13          6           0       -2.762752    2.993290    0.795933
     14          1           0       -2.266180    3.964371    0.860268
     15          1           0       -2.701439    2.507046    1.771163
     16          1           0       -3.814550    3.161403    0.554439
     17          6           0        1.883820   -0.771773   -1.258031
     18          1           0        0.389977   -2.255903   -0.673676
     19          1           0        0.663648   -2.096163   -2.402327
     20          1           0        2.684068   -1.529766   -1.281160
     21          7           0        1.939666    0.067909   -0.071137
     22          1           0        2.044276   -0.131299   -2.128976
     23          6           0        3.064818    1.025710   -0.112497
     24          6           0        1.779657   -0.663586    1.196453
     25          6           0        1.478730    0.287089    2.357152
     26          6           0        2.940312   -1.593782    1.569161
     27          1           0        0.887131   -1.280051    1.063731
     28          1           0        3.259692    1.319194    0.920380
     29          6           0        2.655252    2.285367   -0.875591
     30          6           0        4.380031    0.473647   -0.682770
     31          1           0        0.739390    1.037841    2.068607
     32          1           0        2.375201    0.803145    2.709316
     33          1           0        1.080479   -0.281372    3.202000
     34          1           0        3.186648   -2.284169    0.758460
     35          1           0        2.670986   -2.189687    2.445295
     36          1           0        3.835830   -1.018342    1.820453
     37          1           0        3.477674    3.005322   -0.898027
     38          1           0        1.792443    2.761718   -0.404836
     39          1           0        2.392479    2.047414   -1.910751
     40          1           0        5.181965    1.195022   -0.507182
     41          1           0        4.311003    0.314783   -1.762272
     42          1           0        4.667222   -0.470272   -0.216738
     43          8           0       -1.429049   -2.074208    0.628579
     44          1           0       -1.173630   -0.562947    2.009370
     45          1           0       -1.581578   -2.819195    0.035408
 ---------------------------------------------------------------------
 Rotational constants (GHZ):      0.5454883      0.2533759      0.2339297
 Leave Link  202 at Wed Feb  7 08:51:05 2018, MaxMem=  4718592000 cpu:         0.1
 (Enter /apps/gaussian/g09_d01/g09/l301.exe)
 Standard basis: 6-311G(d,p) (5D, 7F)
 Ernie: Thresh=  0.10000D-02 Tol=  0.10000D-05 Strict=F.
 There are   507 symmetry adapted cartesian basis functions of A   symmetry.
 There are   490 symmetry adapted basis functions of A   symmetry.
   490 basis functions,   796 primitive gaussians,   507 cartesian basis functions
    78 alpha electrons       78 beta electrons
       nuclear repulsion energy      1811.4841769752 Hartrees.
 IExCor= 4336 DFT=T Ex+Corr=M062X ExCW=0 ScaHFX=  0.540000
 ScaDFX=  1.000000  1.000000  1.000000  1.000000 ScalE2=  1.000000  1.000000
 IRadAn=      5 IRanWt=     -1 IRanGd=            0 ICorTp=0 IEmpDi=  4
 NAtoms=   45 NActive=   45 NUniq=   45 SFac= 1.00D+00 NAtFMM=   60 NAOKFM=F Big=F
 Integral buffers will be    131072 words long.
 Raffenetti 2 integral format.
 Two-electron integral symmetry is turned on.
 ------------------------------------------------------------------------------
 Polarizable Continuum Model (PCM)
 =================================
 Model                : PCM (using non-symmetric T matrix).
 Atomic radii         : SMD-Coulomb.
 Polarization charges : Total charges.
 Charge compensation  : None.
 Solution method      : On-the-fly selection.
 Cavity type          : VdW (van der Waals Surface) (Alpha=1.000).
 Cavity algorithm     : GePol (No added spheres)
                        Default sphere list used, NSphG=   45.
                        Lebedev-Laikov grids with approx.  5.0 points / Ang**2.
                        Smoothing algorithm: Karplus/York (Gamma=1.0000).
                        Polarization charges: spherical gaussians, with
                                              point-specific exponents (IZeta= 3).
                        Self-potential: point-specific (ISelfS= 7).
                        Self-field    : sphere-specific E.n sum rule (ISelfD= 2).
 1st derivatives      : Analytical E(r).r(x)/FMM algorithm (CHGder, D1EAlg=3).
                        Cavity 1st derivative terms included.
 Solvent              : Water, Eps=  78.355300 Eps(inf)=   1.777849
 ------------------------------------------------------------------------------
 GePol: Number of generator spheres                  =      45
 GePol: Total number of spheres                      =      45
 GePol: Number of exposed spheres                    =      45 (100.00%)
 GePol: Number of points                             =    2921
 GePol: Average weight of points                     =       0.11
 GePol: Minimum weight of points                     =   0.22D-09
 GePol: Maximum weight of points                     =    0.21991
 GePol: Number of points with low weight             =     208
 GePol: Fraction of low-weight points (<1% of avg)   =       7.12%
 GePol: Cavity surface area                          =    331.479 Ang**2
 GePol: Cavity volume                                =    312.128 Ang**3
 ------------------------------------------------------------------------------
 Atomic radii for non-electrostatic terms: SMD-CDS.
 ------------------------------------------------------------------------------
 PCM non-electrostatic energy =         0.0122683743 Hartrees.
 Nuclear repulsion after PCM non-electrostatic terms =     1811.4964453496 Hartrees.
 Leave Link  301 at Wed Feb  7 08:51:05 2018, MaxMem=  4718592000 cpu:         1.1
 (Enter /apps/gaussian/g09_d01/g09/l302.exe)
 NPDir=0 NMtPBC=     1 NCelOv=     1 NCel=       1 NClECP=     1 NCelD=      1
         NCelK=      1 NCelE2=     1 NClLst=     1 CellRange=     0.0.
 One-electron integrals computed using PRISM.
 NBasis=   490 RedAO= T EigKep=  1.55D-03  NBF=   490
 NBsUse=   490 1.00D-06 EigRej= -1.00D+00 NBFU=   490
 Precomputing XC quadrature grid using
 IXCGrd= 4 IRadAn=           5 IRanWt=          -1 IRanGd=           0 AccXCQ= 0.00D+00.
 Generated NRdTot=       0 NPtTot=           0 NUsed=           0 NTot=          32
 NSgBfM=   503   503   503   503   503 MxSgAt=    45 MxSgA2=    45.
 Leave Link  302 at Wed Feb  7 08:51:07 2018, MaxMem=  4718592000 cpu:        12.3
 (Enter /apps/gaussian/g09_d01/g09/l303.exe)
 DipDrv:  MaxL=1.
 Leave Link  303 at Wed Feb  7 08:51:08 2018, MaxMem=  4718592000 cpu:         0.9
 (Enter /apps/gaussian/g09_d01/g09/l401.exe)
 Initial guess from the checkpoint file:  "VXh13_1a23_SMD.chk"
 B after Tr=     0.000000    0.000000    0.000000
         Rot=    1.000000    0.000000    0.000000    0.000000 Ang=   0.00 deg.
 Guess basis will be translated and rotated to current coordinates.
 JPrj=2 DoOrth=T DoCkMO=T.
 Leave Link  401 at Wed Feb  7 08:51:09 2018, MaxMem=  4718592000 cpu:         8.5
 (Enter /apps/gaussian/g09_d01/g09/l502.exe)
 Closed shell SCF:
 Using DIIS extrapolation, IDIIS=  1040.
 Integral symmetry usage will be decided dynamically.
 IVT=      799614 IEndB=      799614 NGot=  4718592000 MDV=  4718066583
 LenX=  4718066583 LenY=  4717809027
 Requested convergence on RMS density matrix=1.00D-09 within 128 cycles.
 Requested convergence on MAX density matrix=1.00D-07.
 Requested convergence on             energy=1.00D-07.
 No special actions if energy rises.
 Fock matrices will be formed incrementally for  20 cycles.

 Cycle   1  Pass 1  IDiag  1:
 FoFJK:  IHMeth= 1 ICntrl=       0 DoSepK=F KAlg= 0 I1Cent=   0 FoldK=F
 IRaf= 800000000 NMat=   1 IRICut=       1 DoRegI=T DoRafI=F ISym2E= 0.
 FoFCou: FMM=F IPFlag=           0 FMFlag=      100000 FMFlg1=           0
         NFxFlg=           0 DoJE=F BraDBF=F KetDBF=F FulRan=T
         wScrn=  0.000000 ICntrl=       0 IOpCl=  0 I1Cent=           0 NGrid=           0
         NMat0=    1 NMatS0=      1 NMatT0=    0 NMatD0=    1 NMtDS0=    0 NMtDT0=    0
 Symmetry not used in FoFCou.
 Inv3:  Mode=1 IEnd=    25596723.
 Iteration    1 A*A^-1 deviation from unit magnitude is 5.77D-15 for   2921.
 Iteration    1 A*A^-1 deviation from orthogonality  is 4.55D-15 for   2921   1816.
 Iteration    1 A^-1*A deviation from unit magnitude is 5.55D-15 for   2921.
 Iteration    1 A^-1*A deviation from orthogonality  is 2.49D-11 for   2640   2296.
 E= -1455.91184638210    
 DIIS: error= 1.78D-09 at cycle   1 NSaved=   1.
 NSaved= 1 IEnMin= 1 EnMin= -1455.91184638210     IErMin= 1 ErrMin= 1.78D-09
 ErrMax= 1.78D-09  0.00D+00 EMaxC= 1.00D-01 BMatC= 2.47D-15 BMatP= 2.47D-15
 IDIUse=1 WtCom= 1.00D+00 WtEn= 0.00D+00
 Coeff-Com:  0.100D+01
 Coeff:      0.100D+01
 Gap=     0.305 Goal=   None    Shift=    0.000
 RMSDP=1.54D-10 MaxDP=1.16D-08              OVMax= 1.38D-08

 Error on total polarization charges =  0.06393
 SCF Done:  E(RM062X) =  -1455.91184638     A.U. after    1 cycles
            NFock=  1  Conv=0.15D-09     -V/T= 2.0026
 KE= 1.452178657326D+03 PE=-7.053914729509D+03 EE= 2.334327780451D+03
 SMD-CDS (non-electrostatic) energy       (kcal/mol) =       7.70
 (included in total energy above)
 Leave Link  502 at Wed Feb  7 08:51:46 2018, MaxMem=  4718592000 cpu:       422.8
 (Enter /apps/gaussian/g09_d01/g09/l601.exe)
 Copying SCF densities to generalized density rwf, IOpCl= 0 IROHF=0.

 **********************************************************************

            Population analysis using the SCF density.

 **********************************************************************

 Orbital symmetries:
       Occupied  (A) (A) (A) (A) (A) (A) (A) (A) (A) (A) (A) (A)
                 (A) (A) (A) (A) (A) (A) (A) (A) (A) (A) (A) (A)
                 (A) (A) (A) (A) (A) (A) (A) (A) (A) (A) (A) (A)
                 (A) (A) (A) (A) (A) (A) (A) (A) (A) (A) (A) (A)
                 (A) (A) (A) (A) (A) (A) (A) (A) (A) (A) (A) (A)
                 (A) (A) (A) (A) (A) (A) (A) (A) (A) (A) (A) (A)
                 (A) (A) (A) (A) (A) (A)
       Virtual   (A) (A) (A) (A) (A) (A) (A) (A) (A) (A) (A) (A)
                 (A) (A) (A) (A) (A) (A) (A) (A) (A) (A) (A) (A)
                 (A) (A) (A) (A) (A) (A) (A) (A) (A) (A) (A) (A)
                 (A) (A) (A) (A) (A) (A) (A) (A) (A) (A) (A) (A)
                 (A) (A) (A) (A) (A) (A) (A) (A) (A) (A) (A) (A)
                 (A) (A) (A) (A) (A) (A) (A) (A) (A) (A) (A) (A)
                 (A) (A) (A) (A) (A) (A) (A) (A) (A) (A) (A) (A)
                 (A) (A) (A) (A) (A) (A) (A) (A) (A) (A) (A) (A)
                 (A) (A) (A) (A) (A) (A) (A) (A) (A) (A) (A) (A)
                 (A) (A) (A) (A) (A) (A) (A) (A) (A) (A) (A) (A)
                 (A) (A) (A) (A) (A) (A) (A) (A) (A) (A) (A) (A)
                 (A) (A) (A) (A) (A) (A) (A) (A) (A) (A) (A) (A)
                 (A) (A) (A) (A) (A) (A) (A) (A) (A) (A) (A) (A)
                 (A) (A) (A) (A) (A) (A) (A) (A) (A) (A) (A) (A)
                 (A) (A) (A) (A) (A) (A) (A) (A) (A) (A) (A) (A)
                 (A) (A) (A) (A) (A) (A) (A) (A) (A) (A) (A) (A)
                 (A) (A) (A) (A) (A) (A) (A) (A) (A) (A) (A) (A)
                 (A) (A) (A) (A) (A) (A) (A) (A) (A) (A) (A) (A)
                 (A) (A) (A) (A) (A) (A) (A) (A) (A) (A) (A) (A)
                 (A) (A) (A) (A) (A) (A) (A) (A) (A) (A) (A) (A)
                 (A) (A) (A) (A) (A) (A) (A) (A) (A) (A) (A) (A)
                 (A) (A) (A) (A) (A) (A) (A) (A) (A) (A) (A) (A)
                 (A) (A) (A) (A) (A) (A) (A) (A) (A) (A) (A) (A)
                 (A) (A) (A) (A) (A) (A) (A) (A) (A) (A) (A) (A)
                 (A) (A) (A) (A) (A) (A) (A) (A) (A) (A) (A) (A)
                 (A) (A) (A) (A) (A) (A) (A) (A) (A) (A) (A) (A)
                 (A) (A) (A) (A) (A) (A) (A) (A) (A) (A) (A) (A)
                 (A) (A) (A) (A) (A) (A) (A) (A) (A) (A) (A) (A)
                 (A) (A) (A) (A) (A) (A) (A) (A) (A) (A) (A) (A)
                 (A) (A) (A) (A) (A) (A) (A) (A) (A) (A) (A) (A)
                 (A) (A) (A) (A) (A) (A) (A) (A) (A) (A) (A) (A)
                 (A) (A) (A) (A) (A) (A) (A) (A) (A) (A) (A) (A)
                 (A) (A) (A) (A) (A) (A) (A) (A) (A) (A) (A) (A)
                 (A) (A) (A) (A) (A) (A) (A) (A) (A) (A) (A) (A)
                 (A) (A) (A) (A)
 The electronic state is 1-A.
 Alpha  occ. eigenvalues --  -89.88644 -78.16146 -19.64222 -19.60885 -19.60680
 Alpha  occ. eigenvalues --  -14.72042 -10.57213 -10.55627 -10.55368 -10.55272
 Alpha  occ. eigenvalues --  -10.55202 -10.52997 -10.51334 -10.51141 -10.51008
 Alpha  occ. eigenvalues --  -10.51000 -10.50997  -8.25284  -6.96650  -6.17401
 Alpha  occ. eigenvalues --   -6.17135  -6.16828  -5.08527  -5.08449  -5.08311
 Alpha  occ. eigenvalues --   -1.18954  -1.12400  -1.10625  -1.02219  -0.88947
 Alpha  occ. eigenvalues --   -0.87511  -0.85679  -0.82966  -0.81156  -0.77711
 Alpha  occ. eigenvalues --   -0.76625  -0.76052  -0.71461  -0.69053  -0.67684
 Alpha  occ. eigenvalues --   -0.66757  -0.62547  -0.59757  -0.57893  -0.55443
 Alpha  occ. eigenvalues --   -0.54925  -0.53583  -0.53242  -0.52050  -0.51058
 Alpha  occ. eigenvalues --   -0.49862  -0.49282  -0.48795  -0.47623  -0.46512
 Alpha  occ. eigenvalues --   -0.46161  -0.45755  -0.45131  -0.45026  -0.44526
 Alpha  occ. eigenvalues --   -0.43742  -0.43623  -0.43364  -0.42393  -0.42120
 Alpha  occ. eigenvalues --   -0.41540  -0.40675  -0.39993  -0.39678  -0.38508
 Alpha  occ. eigenvalues --   -0.37984  -0.37140  -0.36728  -0.36059  -0.34498
 Alpha  occ. eigenvalues --   -0.33485  -0.29865  -0.26000
 Alpha virt. eigenvalues --    0.04524   0.07082   0.07608   0.08315   0.09211
 Alpha virt. eigenvalues --    0.09774   0.10860   0.11186   0.11615   0.12430
 Alpha virt. eigenvalues --    0.12748   0.13163   0.13861   0.14389   0.14923
 Alpha virt. eigenvalues --    0.15139   0.16077   0.16127   0.16403   0.17021
 Alpha virt. eigenvalues --    0.17637   0.17822   0.18613   0.18931   0.19356
 Alpha virt. eigenvalues --    0.19582   0.20379   0.20852   0.20941   0.21777
 Alpha virt. eigenvalues --    0.22461   0.22691   0.22839   0.23429   0.24427
 Alpha virt. eigenvalues --    0.24730   0.25693   0.26296   0.26758   0.27499
 Alpha virt. eigenvalues --    0.28169   0.28467   0.29072   0.29807   0.30664
 Alpha virt. eigenvalues --    0.31265   0.32554   0.33813   0.34209   0.35286
 Alpha virt. eigenvalues --    0.36335   0.36832   0.37374   0.37729   0.39294
 Alpha virt. eigenvalues --    0.39992   0.41034   0.41409   0.42466   0.43222
 Alpha virt. eigenvalues --    0.43881   0.44253   0.44615   0.45178   0.45771
 Alpha virt. eigenvalues --    0.46427   0.48127   0.49136   0.50238   0.52193
 Alpha virt. eigenvalues --    0.52469   0.53371   0.54675   0.55382   0.55827
 Alpha virt. eigenvalues --    0.57525   0.58082   0.58743   0.59627   0.60263
 Alpha virt. eigenvalues --    0.61161   0.61386   0.62291   0.62938   0.63386
 Alpha virt. eigenvalues --    0.64064   0.64268   0.64787   0.64809   0.65481
 Alpha virt. eigenvalues --    0.65800   0.66196   0.66444   0.66724   0.66940
 Alpha virt. eigenvalues --    0.67402   0.68570   0.68880   0.68958   0.69229
 Alpha virt. eigenvalues --    0.69766   0.69814   0.71168   0.71747   0.72000
 Alpha virt. eigenvalues --    0.72388   0.72855   0.73423   0.74046   0.74181
 Alpha virt. eigenvalues --    0.74695   0.76881   0.77870   0.79937   0.80429
 Alpha virt. eigenvalues --    0.81157   0.82375   0.83712   0.85124   0.85664
 Alpha virt. eigenvalues --    0.87702   0.88723   0.89059   0.91748   0.92427
 Alpha virt. eigenvalues --    0.94097   0.95851   0.96166   0.97822   0.98570
 Alpha virt. eigenvalues --    0.99113   1.00822   1.00959   1.02518   1.03517
 Alpha virt. eigenvalues --    1.05115   1.05744   1.07159   1.08686   1.10810
 Alpha virt. eigenvalues --    1.11815   1.13334   1.14434   1.16162   1.17285
 Alpha virt. eigenvalues --    1.19422   1.20516   1.21456   1.23473   1.24243
 Alpha virt. eigenvalues --    1.24397   1.27185   1.28024   1.28740   1.30496
 Alpha virt. eigenvalues --    1.31733   1.32077   1.34397   1.37465   1.38192
 Alpha virt. eigenvalues --    1.39401   1.42041   1.42612   1.43661   1.45059
 Alpha virt. eigenvalues --    1.46487   1.47089   1.48231   1.49093   1.50888
 Alpha virt. eigenvalues --    1.51100   1.51903   1.52002   1.52216   1.52664
 Alpha virt. eigenvalues --    1.52988   1.53585   1.53851   1.54261   1.55240
 Alpha virt. eigenvalues --    1.56301   1.57576   1.57641   1.58737   1.58864
 Alpha virt. eigenvalues --    1.59309   1.59479   1.60189   1.60522   1.60979
 Alpha virt. eigenvalues --    1.61625   1.62021   1.63046   1.63932   1.64800
 Alpha virt. eigenvalues --    1.65291   1.65709   1.66714   1.67226   1.68468
 Alpha virt. eigenvalues --    1.68751   1.69195   1.70446   1.71126   1.72228
 Alpha virt. eigenvalues --    1.72943   1.73300   1.73839   1.74789   1.75544
 Alpha virt. eigenvalues --    1.75996   1.76203   1.77178   1.78673   1.79336
 Alpha virt. eigenvalues --    1.79911   1.81228   1.81631   1.82842   1.83266
 Alpha virt. eigenvalues --    1.84087   1.84580   1.85640   1.86669   1.86945
 Alpha virt. eigenvalues --    1.87114   1.89001   1.89851   1.91994   1.93794
 Alpha virt. eigenvalues --    1.94816   1.95477   1.97013   1.97732   1.98965
 Alpha virt. eigenvalues --    2.00382   2.01950   2.02707   2.04147   2.05533
 Alpha virt. eigenvalues --    2.05812   2.07122   2.07304   2.09122   2.10085
 Alpha virt. eigenvalues --    2.11593   2.12941   2.13981   2.15431   2.16038
 Alpha virt. eigenvalues --    2.17947   2.18695   2.19728   2.20341   2.21206
 Alpha virt. eigenvalues --    2.23796   2.24765   2.25609   2.26044   2.28110
 Alpha virt. eigenvalues --    2.30590   2.31659   2.33614   2.33946   2.35263
 Alpha virt. eigenvalues --    2.37859   2.39483   2.41118   2.41488   2.42511
 Alpha virt. eigenvalues --    2.42651   2.43585   2.44741   2.44994   2.46300
 Alpha virt. eigenvalues --    2.47521   2.48955   2.49406   2.51537   2.52549
 Alpha virt. eigenvalues --    2.52851   2.54502   2.54559   2.54964   2.56077
 Alpha virt. eigenvalues --    2.56364   2.56732   2.57268   2.57791   2.58417
 Alpha virt. eigenvalues --    2.58617   2.59634   2.60072   2.60423   2.60886
 Alpha virt. eigenvalues --    2.61503   2.61890   2.62845   2.64143   2.65898
 Alpha virt. eigenvalues --    2.66486   2.67848   2.68515   2.69609   2.69879
 Alpha virt. eigenvalues --    2.71168   2.72100   2.73133   2.75401   2.76155
 Alpha virt. eigenvalues --    2.76556   2.76971   2.78607   2.81434   2.83089
 Alpha virt. eigenvalues --    2.85432   2.86400   2.88341   2.89363   2.91677
 Alpha virt. eigenvalues --    2.93338   2.94034   2.95996   2.97133   2.99519
 Alpha virt. eigenvalues --    2.99979   3.00355   3.01294   3.02776   3.05725
 Alpha virt. eigenvalues --    3.06953   3.08757   3.13089   3.13456   3.15672
 Alpha virt. eigenvalues --    3.17609   3.19124   3.19836   3.21993   3.23308
 Alpha virt. eigenvalues --    3.26250   3.30259   3.31616   3.36652   3.40115
 Alpha virt. eigenvalues --    3.42227   3.44476   3.45811   3.64009   3.70830
 Alpha virt. eigenvalues --    3.75622   3.77943   3.81566   3.81662   3.82431
 Alpha virt. eigenvalues --    3.82940   3.83175   3.84845   3.84928   3.85798
 Alpha virt. eigenvalues --    3.86928   3.87182   3.88146   3.89153   3.89770
 Alpha virt. eigenvalues --    3.90808   3.91876   3.93875   4.09331   4.11674
 Alpha virt. eigenvalues --    4.14817   4.17566   4.27520   4.27776   4.33661
 Alpha virt. eigenvalues --    4.39986   4.97909   4.99692   5.04879   5.07602
 Alpha virt. eigenvalues --    5.11857   5.13135   5.15533   5.16787   5.59994
 Alpha virt. eigenvalues --    5.60671   5.63115   7.17030   8.03036  14.10899
 Alpha virt. eigenvalues --   14.13133  14.21892  17.51091  17.61202  17.66483
 Alpha virt. eigenvalues --   23.87748  23.91868  23.92188  23.94159  23.95892
 Alpha virt. eigenvalues --   23.99975  24.02400  24.02914  24.03606  24.04836
 Alpha virt. eigenvalues --   24.05772  35.66023  49.97013  49.98507  50.02848
 Alpha virt. eigenvalues --  163.35989 189.31238
          Condensed to atoms (all electrons):
               1          2          3          4          5          6
     1  P   12.934251   0.387760   0.240072  -0.021731  -0.068383   0.307266
     2  S    0.387760  15.875665  -0.046337   0.194464  -0.007937  -0.021690
     3  O    0.240072  -0.046337   8.493028   0.001883   0.176928  -0.057370
     4  C   -0.021731   0.194464   0.001883   5.416873  -0.000071  -0.000633
     5  C   -0.068383  -0.007937   0.176928  -0.000071   4.947023  -0.004789
     6  O    0.307266  -0.021690  -0.057370  -0.000633  -0.004789   8.116658
     7  C    0.193980  -0.058235  -0.084564  -0.000293   0.004881  -0.025018
     8  H   -0.046511  -0.010083   0.002321  -0.000145  -0.000291  -0.000588
     9  H   -0.054091  -0.002248   0.006292   0.000025   0.000533  -0.000687
    10  H   -0.017380   0.000566  -0.000183  -0.000027  -0.000150  -0.004203
    11  H   -0.000064  -0.009073  -0.029068  -0.000048   0.413943   0.000381
    12  H   -0.022168  -0.016639  -0.035530  -0.001194   0.402206   0.000727
    13  C    0.001168   0.004535  -0.045275   0.000000   0.340026  -0.006353
    14  H    0.001017  -0.000062   0.004474  -0.000002  -0.036900  -0.000044
    15  H   -0.000111  -0.000652  -0.000212   0.000001  -0.036839   0.008188
    16  H    0.000769  -0.000129   0.002935   0.000000  -0.036162  -0.000088
    17  C   -0.008082  -0.067741   0.000003   0.268064   0.000100   0.000253
    18  H   -0.012127  -0.049855   0.000179   0.387749   0.000044  -0.000203
    19  H    0.000168  -0.046807  -0.000050   0.409904  -0.000024  -0.000079
    20  H    0.001893   0.010098   0.000003  -0.061956  -0.000018  -0.000003
    21  N    0.011362   0.003025   0.000026  -0.066357  -0.001335  -0.000606
    22  H   -0.001839  -0.009829   0.000017  -0.027135   0.000049   0.000018
    23  C   -0.000903  -0.001998   0.000000   0.009471   0.000041  -0.000003
    24  C   -0.005789  -0.006103  -0.000044  -0.004425   0.000078   0.000623
    25  C   -0.000071   0.000484   0.000047   0.000160  -0.000069  -0.002676
    26  C    0.001071   0.000310   0.000000  -0.002138  -0.000005   0.000046
    27  H   -0.008659  -0.007830  -0.000286  -0.001767   0.000072   0.003314
    28  H   -0.000031  -0.000086   0.000000  -0.000353   0.000004  -0.000001
    29  C   -0.000340  -0.000300   0.000001  -0.000326  -0.000085  -0.000001
    30  C    0.000147  -0.000009   0.000000  -0.000547  -0.000002   0.000000
    31  H   -0.002078  -0.002123  -0.000116  -0.000097  -0.000506   0.005775
    32  H    0.000173   0.000018   0.000001   0.000004   0.000004   0.000145
    33  H    0.001012   0.000255   0.000009   0.000006  -0.000024  -0.000654
    34  H   -0.000045  -0.000036   0.000000   0.000029   0.000000   0.000002
    35  H   -0.000030   0.000009   0.000000   0.000071   0.000001  -0.000009
    36  H   -0.000036   0.000012   0.000000   0.000102   0.000000  -0.000001
    37  H    0.000024  -0.000022   0.000000  -0.000017  -0.000011   0.000000
    38  H    0.000277   0.000726  -0.000012  -0.000083  -0.000253  -0.000042
    39  H   -0.000051  -0.000359  -0.000003  -0.000547   0.000044  -0.000001
    40  H   -0.000005   0.000022   0.000000   0.000033   0.000000   0.000000
    41  H    0.000005  -0.000047   0.000000   0.000337   0.000000   0.000000
    42  H   -0.000014  -0.000049   0.000000  -0.000033   0.000000   0.000000
    43  O    0.199282  -0.065708   0.003256  -0.009800   0.000012  -0.065394
    44  H   -0.026789  -0.002569   0.001158  -0.000260   0.001037   0.326559
    45  H   -0.030189  -0.004441  -0.000553  -0.002145  -0.000068   0.002119
               7          8          9         10         11         12
     1  P    0.193980  -0.046511  -0.054091  -0.017380  -0.000064  -0.022168
     2  S   -0.058235  -0.010083  -0.002248   0.000566  -0.009073  -0.016639
     3  O   -0.084564   0.002321   0.006292  -0.000183  -0.029068  -0.035530
     4  C   -0.000293  -0.000145   0.000025  -0.000027  -0.000048  -0.001194
     5  C    0.004881  -0.000291   0.000533  -0.000150   0.413943   0.402206
     6  O   -0.025018  -0.000588  -0.000687  -0.004203   0.000381   0.000727
     7  C    5.451759   0.402569   0.403345   0.386904  -0.000414  -0.001011
     8  H    0.402569   0.481466  -0.015426  -0.013112   0.000035  -0.000035
     9  H    0.403345  -0.015426   0.486878  -0.012690  -0.000212   0.000045
    10  H    0.386904  -0.013112  -0.012690   0.454264  -0.000017   0.000032
    11  H   -0.000414   0.000035  -0.000212  -0.000017   0.545473  -0.040993
    12  H   -0.001011  -0.000035   0.000045   0.000032  -0.040993   0.601821
    13  C   -0.000199   0.000013   0.000026   0.000089  -0.037398  -0.058394
    14  H    0.000021   0.000000   0.000000  -0.000006  -0.000956  -0.002941
    15  H   -0.000279   0.000002  -0.000096  -0.000044   0.007949  -0.010059
    16  H   -0.000049   0.000000   0.000122   0.000011  -0.008381   0.010324
    17  C   -0.000074  -0.000028  -0.000009   0.000000   0.000012   0.000497
    18  H    0.000896  -0.000104  -0.000074  -0.000029  -0.000015  -0.000195
    19  H    0.000133   0.000147   0.000034   0.000007  -0.000019  -0.000020
    20  H    0.000009   0.000004   0.000001   0.000000  -0.000001   0.000083
    21  N    0.000008   0.000003   0.000001   0.000003  -0.000054   0.008345
    22  H   -0.000006  -0.000003   0.000000   0.000000  -0.000003  -0.000135
    23  C    0.000000   0.000000   0.000000   0.000000   0.000001  -0.000565
    24  C   -0.000068  -0.000001   0.000002   0.000002   0.000000   0.000513
    25  C    0.000001  -0.000001   0.000000  -0.000003   0.000007  -0.001004
    26  C    0.000000   0.000000   0.000000   0.000001   0.000000   0.000109
    27  H    0.000258  -0.000022  -0.000027  -0.000022   0.000001   0.000148
    28  H    0.000000   0.000000   0.000000   0.000000   0.000000  -0.000027
    29  C    0.000000   0.000000   0.000000   0.000000   0.000029   0.000394
    30  C    0.000000   0.000000   0.000000   0.000000   0.000000   0.000066
    31  H   -0.000022  -0.000002  -0.000002   0.000006   0.000030   0.002365
    32  H    0.000000   0.000000   0.000000   0.000000   0.000000  -0.000068
    33  H    0.000005   0.000001   0.000000   0.000002   0.000000   0.000003
    34  H    0.000000   0.000000   0.000000   0.000000   0.000000  -0.000001
    35  H    0.000000   0.000000   0.000000   0.000000   0.000000  -0.000008
    36  H    0.000000   0.000000   0.000000   0.000000   0.000000  -0.000002
    37  H    0.000000   0.000000   0.000000   0.000000  -0.000004   0.000121
    38  H    0.000000   0.000000   0.000000   0.000000   0.000038   0.001135
    39  H    0.000000   0.000000   0.000000   0.000000   0.000037   0.000069
    40  H    0.000000   0.000000   0.000000   0.000000   0.000000  -0.000004
    41  H    0.000000   0.000000   0.000000   0.000000   0.000000  -0.000003
    42  H    0.000000   0.000000   0.000000   0.000000   0.000000  -0.000001
    43  O   -0.053463  -0.000037   0.003190  -0.001120   0.000015  -0.000283
    44  H   -0.003123  -0.000073  -0.000257  -0.000478  -0.000022   0.001078
    45  H    0.006946   0.005178   0.000550  -0.000062  -0.000004   0.000049
              13         14         15         16         17         18
     1  P    0.001168   0.001017  -0.000111   0.000769  -0.008082  -0.012127
     2  S    0.004535  -0.000062  -0.000652  -0.000129  -0.067741  -0.049855
     3  O   -0.045275   0.004474  -0.000212   0.002935   0.000003   0.000179
     4  C    0.000000  -0.000002   0.000001   0.000000   0.268064   0.387749
     5  C    0.340026  -0.036900  -0.036839  -0.036162   0.000100   0.000044
     6  O   -0.006353  -0.000044   0.008188  -0.000088   0.000253  -0.000203
[...]
 47,-0.00000020,-0.00000776,0.00000621,-0.00000080,-0.00000094,-0.00000
 023,-0.00000042,0.,-0.00000085,-0.00000018,0.00000018,-0.00000003,0.00
 000015,-0.00000056,0.00000040,-0.00000004,-0.00021091,-0.00041083,-0.0
 0058521,-0.00001394,-0.00000996,-0.00000419,0.00000246,0.00000834,0.00
 000244,-0.00060130,-0.00029097,-0.00016196,0.00243418,-0.00088866,-0.0
 0030765,-0.00011174,0.00008652,0.00009861,-0.00402408,0.01951905,-0.01
 773039,-0.00033823,0.00009817,0.00021367,0.00005734,0.00001483,0.00005
 787,-0.00056404,-0.00019016,0.00056252,0.00007318,-0.00004220,0.000009
 14,0.00080845,-0.00070591,0.00013775,-0.00408215,0.00274055,0.00300072
 ,-0.05536408,0.03865045,-0.02896201,0.00000950,-0.00003017,-0.00001597
 ,-0.00003467,-0.00001643,-0.00000876,-0.00000967,-0.00001498,-0.000010
 08,-0.00017793,-0.00024425,0.00005181,0.00018481,-0.00000816,-0.000043
 36,0.00003304,0.00016255,0.00060653,0.00040526,0.00000038,0.00000152,-
 0.00042001,0.00142690,-0.00099172,0.00004585,-0.00025419,0.00013899,0.
 00582164,-0.01926207,0.01637021,-0.00190109,0.00367290,-0.00265147,0.0
 5788886,0.00000014,-0.00001570,-0.00001632,-0.00005315,0.00000142,-0.0
 0000122,0.00000491,0.00001144,-0.00000065,0.00000517,0.00008429,0.0000
 0432,-0.00000803,-0.00000179,-0.00000098,0.00000291,0.00000281,0.00000
 120,-0.00000014,0.00000204,0.00000367,0.00000005,0.00000021,0.00000011
 ,0.00000008,0.00000012,-0.00000004,-0.00000090,-0.00000031,-0.00000013
 ,-0.00000077,0.00000012,0.00000025,0.00000244,-0.00000001,0.00000279,0
 .00000074,0.00000069,0.00000053,-0.00000033,0.00000068,0.00000026,-0.0
 0000029,-0.00000005,-0.00000031,0.00000075,-0.00000050,-0.00000012,-0.
 00002282,0.00018013,-0.00011929,0.00000268,-0.00000071,-0.00001136,0.0
 0001915,0.00000355,0.00000214,-0.00003756,0.00016298,0.00016276,-0.000
 67920,0.00072331,-0.00044367,-0.00011020,0.00004078,-0.00005117,-0.000
 00249,-0.01240931,0.01052474,0.00041393,0.00001137,-0.00001558,-0.0000
 2657,-0.00001020,-0.00001569,-0.00013473,0.00022025,0.00121716,-0.0000
 2757,0.00005075,-0.00010521,-0.00044066,0.00022668,-0.00008132,0.00308
 037,-0.00117917,-0.00233548,0.04043801,-0.21305319,0.12720775,-0.00000
 767,0.00000506,0.00000742,0.00001791,0.00000471,0.00000196,0.00000445,
 0.00000500,-0.00001351,0.00007130,0.00000264,0.00011262,-0.00047759,0.
 00001947,0.00014607,-0.00048792,-0.00030766,0.00008350,-0.00000080,0.0
 0030350,-0.00021185,0.00057094,-0.00063667,0.00090536,0.00004843,0.000
 02953,0.00019673,0.00398976,-0.01330327,0.01027564,-0.00220420,0.00984
 965,-0.00684538,-0.04395046,0.22897694,0.00000191,0.00000796,0.0000395
 1,0.00005676,-0.00001351,-0.00002519,0.00000665,-0.00001682,-0.0000064
 2,0.00000353,-0.00014936,0.00003964,0.00000395,0.00000346,-0.00000219,
 -0.00000467,-0.00000169,-0.00000676,0.00000109,-0.00000131,-0.00000696
 ,-0.00000033,0.00000006,-0.00000004,-0.00000023,0.00000007,0.00000022,
 0.00000303,0.00000118,0.00000027,-0.00000088,-0.00000048,0.00000067,0.
 00000214,-0.00000262,0.00000037,-0.00000060,-0.00000157,0.00000092,0.0
 0000021,-0.00000067,-0.00000038,0.00000024,0.00000020,0.00000004,0.000
 00007,-0.00000012,-0.00000016,0.00007366,0.00061916,-0.00007575,-0.000
 00983,-0.00000212,-0.00000259,-0.00000409,-0.00000484,-0.00000128,0.00
 018912,-0.00027148,0.00002409,-0.00120545,0.00043482,0.00048581,-0.000
 09014,-0.00000766,0.00010744,0.00123699,-0.00938631,0.00687592,-0.0000
 1916,-0.00013362,0.00003354,-0.00001127,0.00000076,-0.00000936,0.00060
 030,0.00011199,-0.00163394,-0.00002319,0.00001502,0.00000391,-0.000797
 86,0.00044537,0.00034551,0.00152710,-0.00090951,0.00012558,-0.03032478
 ,0.12849271,-0.14537306,-0.00000263,0.00001713,0.00000404,-0.00000164,
 -0.00000537,0.00000119,-0.00000578,0.00000057,0.00000691,-0.00003653,0
 .00005968,-0.00012193,0.00031040,0.00002838,-0.00009762,0.00121361,0.0
 0049909,-0.00194764,0.00003729,-0.00001593,-0.00012305,0.00033543,-0.0
 0031983,0.00044006,0.00015909,-0.00014179,0.00018327,0.00081486,-0.001
 83853,0.00030501,-0.00420741,0.02307884,-0.01603707,0.03017030,-0.1405
 9091,0.15645534,-0.06227926,0.00430311,-0.01634085,0.00152016,-0.00008
 875,0.00576254,0.00635941,0.00553537,-0.00186833,-0.00306271,0.0029324
 5,0.00107577,-0.00116565,-0.00016768,-0.00080310,0.00483293,-0.0112464
 0,-0.00359815,-0.02077127,0.02356267,-0.02200612,0.00113634,0.00247114
 ,-0.00055565,-0.00792385,-0.00158226,0.00113085,0.00056864,0.00050440,
 -0.00057734,0.00027066,0.00046491,-0.00012941,0.00024883,0.00014897,0.
 00001823,0.00027023,0.00018856,-0.00012237,-0.00005152,0.00011835,0.00
 010051,-0.00003719,-0.00000456,0.00006112,-0.00001786,-0.00002747,0.00
 001260,0.00067149,-0.00083870,0.00144023,-0.00073187,-0.00346272,0.003
 95301,-0.00037613,-0.00061794,0.00161365,-0.00009299,0.00010426,-0.000
 00826,-0.00078719,-0.00038093,0.00021853,-0.00064781,-0.00033765,0.000
 01963,0.00037847,0.00037779,0.00005951,0.00168936,0.00146440,-0.000298
 31,-0.00044154,0.00010556,0.00011703,-0.00063191,-0.00073225,0.0000230
 7,-0.00173545,-0.00049343,0.00062186,-0.00004820,-0.00005084,-0.000045
 77,-0.00017606,-0.00003360,0.00002034,-0.00010905,-0.00013343,0.000041
 01,0.00004297,-0.00006224,-0.00002003,-0.00007610,-0.00028521,-0.00019
 490,0.00006477,-0.00001107,-0.00011753,-0.00003171,0.00006089,0.000024
 51,-0.00000128,0.00006284,-0.00007055,-0.00035142,0.00020596,-0.000152
 64,-0.00001208,-0.00008403,0.00004771,0.00001545,-0.00000792,-0.000004
 30,0.00001325,0.00001264,-0.00001266,-0.00009044,0.00000783,0.00001646
 ,-0.00000555,0.00000630,-0.00001211,0.00002372,0.00000075,-0.00000354,
 0.13317292,0.02342292,-0.07327499,0.02046870,0.00022391,-0.00427843,0.
 01422790,0.00049307,-0.00672308,0.00361855,0.00381234,-0.00215871,-0.0
 0028175,0.00161145,0.00211392,-0.00006314,-0.00067239,-0.06917735,-0.0
 1013864,0.00497866,-0.00876442,0.01045935,0.00083760,0.00088812,0.0003
 5174,0.00368242,0.00265076,-0.00053145,-0.00040544,-0.00044095,-0.0000
 3245,-0.00015409,-0.00056071,0.00029004,0.00007284,0.00010250,-0.00000
 227,-0.00015558,-0.00047185,0.00019863,0.00004178,-0.00025470,-0.00009
 964,-0.00000846,-0.00002886,0.00017375,0.00007812,-0.00006879,0.000000
 11,-0.00017107,0.00099544,-0.00119751,-0.00181962,0.00195293,-0.001455
 78,-0.00037279,0.00037148,-0.00075018,-0.00041891,-0.00014607,-0.00006
 432,-0.00049451,-0.00008484,-0.00012935,0.00046784,0.00014658,0.000050
 42,0.00015796,0.00015473,-0.00004560,0.00018267,0.00044699,-0.00003554
 ,-0.00000355,-0.00002893,0.00004333,-0.00025424,-0.00021943,-0.0000028
 6,-0.00066317,-0.00035165,-0.00016444,-0.00001657,-0.00002333,-0.00000
 777,-0.00004113,-0.00000998,0.00000847,-0.00005640,-0.00004939,0.00001
 471,-0.00004447,0.00012218,-0.00005645,-0.00008190,-0.00000119,-0.0000
 4138,0.00002725,-0.00002188,-0.00002689,-0.00002407,0.00001954,0.00001
 147,-0.00001508,0.00001582,-0.00003798,-0.00009336,0.00007926,-0.00004
 428,-0.00001300,-0.00002023,0.00001634,0.00000357,0.00001193,0.0000002
 2,0.00001109,-0.00000197,-0.00000029,-0.00003131,0.00000124,0.00001241
 ,-0.00000265,0.00000653,0.00000345,0.00000477,-0.00000143,-0.00000020,
 0.08891116,0.54983651,-0.02348240,0.00643022,-0.06816883,0.00462281,0.
 01417576,-0.02243077,-0.00080501,0.00866229,0.00182247,-0.00086587,0.0
 0070055,-0.00077263,-0.00166984,-0.00136631,0.00022587,-0.00120700,-0.
 02696705,-0.00138988,-0.00640705,0.01131616,-0.00319916,0.00100037,0.0
 0118884,-0.00061800,-0.00335320,-0.00037617,0.00182049,-0.00181921,0.0
 0001015,0.00048383,0.00021542,0.00022683,-0.00010474,0.00012046,-0.000
 08716,-0.00011758,0.00027029,0.00045199,-0.00017290,-0.00002150,0.0002
 0171,0.00015864,-0.00002889,0.00007444,0.00012291,-0.00003638,0.000003
 12,0.00005297,-0.00047749,-0.00088255,-0.00126999,0.00156320,0.0008550
 1,-0.00284839,0.00057636,0.00002653,-0.00078304,0.00066853,0.00017812,
 0.00020821,0.00062152,0.00001030,0.00042758,0.00026537,0.00026201,0.00
 018542,-0.00027250,-0.00029353,0.00034919,0.00012977,0.00038160,-0.000
 34273,0.00012692,-0.00004185,0.00017627,-0.00005679,-0.00008803,0.0001
 5025,-0.00044529,-0.00046423,-0.00008344,0.00012140,0.00010717,0.00000
 935,0.00006347,-0.00000345,-0.00003136,0.00010491,0.00009619,-0.000040
 07,0.00001911,0.00004094,-0.00002705,-0.00002149,0.00002746,-0.0000145
 7,0.00003890,0.00005836,0.00003716,-0.00000809,0.00003820,-0.00001392,
 0.00005673,-0.00002877,0.00005379,-0.00001753,0.00001925,-0.00000865,0
 .00002337,0.00004434,-0.00001261,-0.00000852,0.00001304,-0.00000906,-0
 .00001300,-0.00000639,0.00003431,0.00006195,0.00000840,-0.00000426,0.0
 0000013,0.00000058,0.00004122,-0.00000517,0.00000142,-0.00000830,0.103
 54301,0.15866984,0.21605036,-0.00772555,0.00322462,-0.01140582,0.00006
 336,0.00020349,0.00093585,0.00159307,-0.00078786,-0.00177973,0.0001280
 6,-0.00002533,0.00007253,-0.00011170,-0.00000924,0.00012995,-0.1287979
 9,0.12880358,-0.16390272,0.00008734,-0.00006207,-0.00019424,-0.0000737
 9,0.00000386,0.00000405,0.00005389,0.00003868,-0.00002278,-0.00008352,
 -0.00000885,0.00003557,0.00025159,0.00008014,0.00007806,0.00033269,0.0
 0007210,0.00001931,-0.00001925,-0.00001712,0.00019499,0.00000388,-0.00
 003689,0.00000474,-0.00002969,0.00010533,0.00001235,0.00001810,-0.0000
 2626,-0.00002450,0.00010725,0.00023489,0.00009890,0.00004118,-0.000024
 21,0.00000602,-0.00012500,0.00002671,-0.00003164,-0.00003491,-0.000063
 15,-0.00001799,0.00025202,-0.00001168,-0.00030210,-0.00000038,-0.00004
 382,-0.00005293,-0.00009130,-0.00009168,-0.00006892,-0.00175873,-0.000
 02844,0.00094687,-0.00281534,-0.00011409,0.00003884,0.00026831,0.00013
 793,-0.00023156,-0.00082635,0.00140024,0.00075173,-0.00004875,-0.00003
 413,-0.00000258,0.00005168,0.00000123,-0.00000744,0.00001892,0.0000332
 2,-0.00002106,0.00012877,-0.00070381,0.00035772,0.00045439,-0.00009293
 ,-0.00019807,-0.00046854,0.00017858,-0.00083338,0.00006915,-0.00008340
 ,0.00000435,-0.00002173,0.00000326,0.00000293,0.00010479,-0.00008544,0
 .00004182,0.00000432,0.00002090,-0.00001770,0.00000081,-0.00000144,-0.
 00000094,-0.00000535,0.00000136,-0.00001123,0.00002368,-0.00000678,-0.
 00000969,0.00000885,-0.00000927,-0.00001263,-0.00000783,-0.00000072,0.
 00000433,0.00099385,0.00435070,0.00117278,0.13857832,-0.01149537,0.010
 69209,-0.01548970,0.00005347,-0.00037045,-0.00002581,-0.00218062,0.002
 97145,-0.00401737,-0.00003234,-0.00000147,-0.00012881,-0.00032980,-0.0
 0049710,-0.00043083,0.14913675,-0.19781587,0.19717247,0.00020432,-0.00
 108689,-0.00045220,-0.00045421,-0.00012872,-0.00004452,0.00006632,-0.0
 0005874,-0.00003535,0.00009749,0.00004153,-0.00000084,0.00015957,0.000
 25373,-0.00001227,0.00016059,0.00002220,0.00003773,0.00010644,0.000011
 54,-0.00013042,0.00000847,0.00001522,0.00008520,0.00004522,-0.00008386
 ,0.00021424,0.00000266,-0.00003814,0.00003711,0.00004017,-0.00005949,0
 .00004358,0.00020252,-0.00011729,-0.00002361,0.00004366,-0.00003560,0.
 00006310,0.00002121,0.00000634,-0.00000109,-0.00007445,-0.00011357,0.0
 0002155,-0.00002458,-0.00001073,-0.00000268,-0.00000076,0.00003094,0.0
 0003438,0.00045557,0.00049670,0.00000085,0.00016184,0.00035181,-0.0001
 4154,-0.00008401,-0.00011179,-0.00002266,0.00041034,-0.00073241,-0.000
 10132,-0.00000986,-0.00000253,-0.00000247,-0.00001170,-0.00000059,-0.0
 0000362,-0.00000658,-0.00000731,-0.00000080,0.00007914,-0.00034486,0.0
 0020563,0.00018693,-0.00015585,-0.00003810,-0.00022921,-0.00000616,-0.
 00011681,0.00001526,-0.00001170,0.00000282,0.00000860,0.00000179,0.000
 00454,-0.00003280,0.00001530,-0.00001549,0.00000287,-0.00000313,0.0000
 0209,0.00000240,-0.00000478,0.00000176,-0.00000031,0.00000093,-0.00000
 078,-0.00000272,0.00000111,0.00000122,0.00000088,-0.00000102,-0.000001
 22,0.00000250,-0.00000091,0.00000017,-0.00020528,-0.00416470,-0.001346
 46,-0.13699849,0.19209028,-0.01540793,0.00813888,-0.02540970,-0.000145
 38,0.00029799,0.00136828,-0.00315732,0.00039274,-0.00218700,0.00016814
 ,-0.00020192,-0.00012324,-0.00047732,-0.00088821,0.00003368,-0.1575502
 4,0.16314774,-0.22783308,0.00036235,0.00034777,0.00098811,0.00020416,-
 0.00000849,0.00006743,0.00039667,0.00011897,-0.00001975,-0.00015552,-0
 .00007694,0.00009796,0.00018819,0.00000645,0.00007103,0.00022414,0.000
 01534,0.00010948,0.00002016,-0.00013309,-0.00000109,0.00000633,-0.0000
 2451,0.00006036,-0.00003650,0.00004265,0.00013897,0.00002064,-0.000039
 00,0.00002673,0.00010488,0.00001782,-0.00003412,0.00015126,-0.00014585
 ,-0.00009441,-0.00006226,0.00001268,0.00003681,-0.00008496,0.00000755,
 -0.00000433,-0.00023154,-0.00003762,-0.00003505,0.00000285,-0.00001761
 ,0.00001277,0.00010265,0.00008977,0.00000012,0.00068192,0.00038291,-0.
 00018579,-0.00061595,-0.00030295,0.00051333,-0.00017797,-0.00015803,0.
 00003872,0.00071877,-0.00075438,-0.00030872,-0.00001200,-0.00001426,-0
 .00001290,-0.00003058,-0.00000933,0.00000290,-0.00003026,-0.00003183,0
 .00000204,-0.00000179,0.00017374,-0.00003602,-0.00007532,0.00002209,-0
 .00015785,0.00014356,0.00011696,-0.00040194,-0.00000502,0.00001769,0.0
 0000322,0.00000520,0.00001334,-0.00001929,-0.00007829,0.00006393,-0.00
 003164,-0.00000696,-0.00001596,0.00001255,0.00000405,0.00000800,-0.000
 00317,0.00000540,0.00000232,-0.00000188,-0.00002162,0.00000283,0.00000
 658,0.00000044,0.00000230,-0.00000034,0.00000468,0.00000112,-0.0000001
 7,0.00090059,0.00551028,0.00144594,0.17347678,-0.17656819,0.25138319,0
 .00228810,0.00653231,0.00277895,0.00039898,-0.00023253,0.00046322,-0.0
 0066229,-0.00032518,0.00015994,0.00063509,-0.00040591,0.00056388,0.000
 02434,0.00002045,0.00009444,0.00295816,0.00420456,0.00023034,-0.001793
 33,0.00154953,0.00077231,-0.00309114,-0.00028601,-0.00180759,0.0001791
 8,-0.00067984,-0.00019946,-0.00001281,-0.00002088,-0.00011794,-0.00002
 430,-0.00001818,-0.00000179,-0.00003460,-0.00003171,0.00000464,-0.0000
 2180,-0.00000097,-0.00002313,0.00000467,0.00000041,0.00000022,0.000012
 69,-0.00001185,0.00000321,-0.00000555,0.00000373,0.00000304,-0.0002998
 5,0.00009932,-0.00073693,-0.00399836,0.00070825,0.00120117,0.00008418,
 0.00007336,-0.00028904,0.00005462,-0.00000193,0.00003345,0.00008557,0.
 00002457,0.00008086,0.00024657,0.00014034,0.00003554,-0.00003884,-0.00
 004814,0.00008769,0.00004055,0.00023353,-0.00010755,0.00002502,0.00003
 941,0.00005462,-0.00006028,-0.00006533,0.00002347,-0.00021066,-0.00020
 260,-0.00006248,0.00002727,0.00002526,0.00000134,0.00000777,-0.0000014
 5,-0.00000492,0.00001638,0.00001591,-0.00000985,0.00000488,-0.00001569
 ,0.00000056,0.00000267,-0.00000731,-0.00000373,0.00000694,0.00001019,-
 0.00000239,-0.00000617,0.00001175,0.00000042,0.00000917,-0.00000421,0.
 00000450,-0.00001943,0.00002319,-0.00001377,0.00000360,0.00000794,-0.0
 0000118,-0.00000090,0.00000410,0.00000103,-0.00000058,-0.00000337,0.00
 000879,0.00001131,0.00000200,0.00000080,-0.00000112,0.00000129,0.00001
 149,-0.00000094,-0.00000014,-0.00000205,-0.05061737,-0.12735836,-0.074
 36456,-0.00059260,0.00049788,0.00047094,0.05436524,-0.00467896,-0.0223
 5491,-0.00705591,0.00093112,0.00041605,-0.00078247,0.00019659,0.001864
 01,-0.00001485,-0.00023840,0.00036287,-0.00022005,-0.00030826,-0.00031
 299,0.00000134,0.00025388,-0.00268928,0.00012526,-0.00126540,-0.000006
 05,-0.00130054,0.00077352,0.00172087,0.00000532,-0.00091219,0.00042718
 ,0.00030152,-0.00029926,0.00013446,-0.00000928,0.00005963,0.00007612,-
 0.00003191,0.00002533,0.00000396,-0.00001595,0.00006341,0.00007341,-0.
 00004818,-0.00001080,0.00005135,0.00003063,-0.00001467,-0.00000064,0.0
 0002697,-0.00001352,0.00000068,0.00001842,-0.00013447,-0.00020032,-0.0
 0025620,-0.00025505,0.00054246,-0.00028548,0.00014853,-0.00005527,-0.0
 0019271,0.00016403,0.00003160,0.00004041,0.00021121,0.00005989,0.00008
 681,0.00008815,0.00005887,0.00003345,-0.00009783,-0.00010218,0.0000547
 0,-0.00005143,-0.00008232,-0.00007409,0.00003499,-0.00003861,0.0000029
 3,0.00004317,0.00006362,0.00001813,-0.00010102,0.00004159,-0.00009673,
 0.00002560,0.00002219,0.00000674,0.00003094,0.00000189,-0.00000684,0.0
 0002969,0.00003234,-0.00001036,0.00000202,0.00000507,-0.00000181,0.000
 00958,0.00003236,0.00002040,-0.00001371,0.00000406,0.00002527,-0.00000
 164,-0.00000255,-0.00000605,0.00000720,-0.00001218,0.00001808,0.000039
 24,-0.00002134,0.00001420,0.00000527,0.00001735,-0.00000907,-0.0000040
 8,0.00000204,-0.00000039,-0.00000488,-0.00000269,0.00000527,0.00002100
 ,-0.00000018,-0.00000355,0.00000177,-0.00000104,0.00000687,-0.00000298
 ,0.00000077,-0.00000037,-0.11069596,-0.38858861,-0.17232885,0.00044632
 ,-0.00103730,0.00047430,0.11549233,0.40946136,0.00287097,0.01440777,0.
 00495116,-0.00065656,0.00072224,-0.00248259,0.00013468,-0.00077014,-0.
 00009861,0.00023976,-0.00015559,-0.00027912,0.00008244,0.00013699,-0.0
 0001706,-0.00092073,0.00277477,0.00288220,-0.00022488,0.00007026,-0.00
 073102,-0.00208559,-0.00024844,-0.00010401,0.00008936,-0.00000530,-0.0
 0007499,0.00030791,-0.00015869,0.00005289,-0.00001602,-0.00003283,0.00
 001725,0.00002406,-0.00003202,0.00005646,-0.00004232,-0.00003351,0.000
 01752,0.00000278,-0.00002508,-0.00001200,0.00002204,-0.00000828,-0.000
 00553,0.00000682,-0.00000147,-0.00000942,0.00018767,0.00004299,0.00034
 948,0.00285895,-0.00036194,-0.00063879,-0.00005003,0.00003367,0.000046
 39,-0.00010397,-0.00001159,-0.00003482,-0.00017104,-0.00005642,-0.0000
 6797,-0.00011092,-0.00007837,-0.00002496,0.00005972,0.00005878,-0.0000
 5736,0.00007970,-0.00001309,0.00012115,-0.00001995,0.00001698,-0.00001
 756,-0.00000147,-0.00000893,-0.00001624,-0.00000195,0.00005438,0.00002
 195,-0.00002269,-0.00002019,-0.00000316,-0.00001910,0.00000184,0.00000
 543,-0.00001838,-0.00002159,0.00000740,-0.00000663,-0.00000474,-0.0000
 0132,-0.00000438,-0.00000879,-0.00000638,0.00000651,-0.00000583,-0.000
 01388,-0.00000006,-0.00000151,0.00000351,-0.00000925,0.00000819,-0.000
 01489,-0.00000951,0.00000649,-0.00000470,-0.00000396,-0.00001084,0.000
 00481,0.00000041,-0.00000390,-0.00000023,0.00000150,0.00000189,-0.0000
 0517,-0.00001383,-0.00000037,0.00000119,-0.00000043,-0.00000003,-0.000
 00690,0.00000152,0.00000069,0.00000057,-0.07387985,-0.19891957,-0.1213
 8427,0.00075920,0.00122652,0.00048128,0.07065751,0.18143462,0.11709232
 \\0.00000079,-0.00000282,-0.00000197,0.00000157,0.00000806,-0.00000372
 ,-0.00000266,0.00000001,0.00000465,0.00000055,0.00000553,-0.00000757,-
 0.00000047,0.00000205,0.00000946,-0.00000032,-0.00000947,0.00000320,-0
 .00000024,-0.00000164,0.00000025,0.00000213,-0.00000180,-0.00000967,0.
 00000031,-0.00000127,-0.00000321,0.00000018,-0.00000821,-0.00000384,-0
 .00000148,0.00000592,0.00001033,0.00000049,0.00000091,0.00000740,-0.00
 000193,-0.00000150,0.00001440,-0.00000253,-0.00000117,0.00001750,-0.00
 000215,-0.00000629,0.00001236,-0.00000231,-0.00000206,0.00001474,-0.00
 000014,0.00000586,-0.00000488,0.00000147,0.00000083,-0.00000993,0.0000
 0134,0.00000826,-0.00001130,0.00000094,0.00000613,-0.00000984,0.000000
 25,0.00000154,-0.00000295,0.00000055,0.00000972,-0.00000409,-0.0000011
 5,0.00000417,0.00000205,0.00000105,-0.00000359,-0.00000362,-0.00000029
 ,-0.00000758,0.00000191,0.00000067,-0.00000532,-0.00000726,0.00000142,
 -0.00000441,-0.00000535,-0.00000041,0.00000008,0.00000367,-0.00000111,
 0.00000855,0.00000694,0.00000062,0.00000651,-0.00000197,-0.00000010,-0
 .00000617,0.00000611,-0.00000083,-0.00000817,0.00000381,0.00000020,-0.
 00001268,0.00000076,0.00000202,-0.00000287,-0.00001073,0.00000155,-0.0
 0001010,-0.00000882,0.00000103,-0.00000526,-0.00000525,-0.00000157,0.0
 0000921,0.00000884,-0.00000159,0.00000522,0.00000951,-0.00000119,0.000
 01137,0.00000495,-0.00000034,0.00000701,0.00000097,0.00000025,0.000010
 25,-0.00000308,0.00000076,0.00000405,-0.00000524,0.00000069,-0.0000059
 6,-0.00000669,0.00000097,-0.00000899,-0.00000078,0.00000099,-0.0000039
 3,-0.00001205\\\@


 SUCCESS IS COUNTED SWEETEST
 BY THOSE WHO NE'ER SUCCEED.
 TO COMPREHEND NECTAR
 REQUIRES SOREST NEED.
           EMILY DICKINSON
 Job cpu time:       0 days 14 hours 37 minutes 19.5 seconds.
 File lengths (MBytes):  RWF=   1197 Int=      0 D2E=      0 Chk=     33 Scr=      1
 Normal termination of Gaussian 09 at Wed Feb  7 10:05:46 2018.
