 Entering Gaussian System, Link 0=g09
 Input=/rds/general/user/smf115/home/VXHydrolysis/ReactionSMD/Diffuse/Int3a_sp.com
 Output=/rds/general/user/smf115/home/VXHydrolysis/ReactionSMD/Diffuse/Int3a_sp.log
 Initial command:
 /apps/gaussian/g09_d01/g09/l1.exe "/tmp/pbs.284607.pbs/Gau-564.inp" -scrdir="/tmp/pbs.284607.pbs/"
 Entering Link 1 = /apps/gaussian/g09_d01/g09/l1.exe PID=       565.
  
 Copyright (c) 1988,1990,1992,1993,1995,1998,2003,2009,2013,
            Gaussian, Inc.  All Rights Reserved.
  
 This is part of the Gaussian(R) 09 program.  It is based on
 the Gaussian(R) 03 system (copyright 2003, Gaussian, Inc.),
 the Gaussian(R) 98 system (copyright 1998, Gaussian, Inc.),
 the Gaussian(R) 94 system (copyright 1995, Gaussian, Inc.),
 the Gaussian 92(TM) system (copyright 1992, Gaussian, Inc.),
 the Gaussian 90(TM) system (copyright 1990, Gaussian, Inc.),
 the Gaussian 88(TM) system (copyright 1988, Gaussian, Inc.),
 the Gaussian 86(TM) system (copyright 1986, Carnegie Mellon
 University), and the Gaussian 82(TM) system (copyright 1983,
 Carnegie Mellon University). Gaussian is a federally registered
 trademark of Gaussian, Inc.
  
 This software contains proprietary and confidential information,
 including trade secrets, belonging to Gaussian, Inc.
  
 This software is provided under written license and may be
 used, copied, transmitted, or stored only in accord with that
 written license.
  
 The following legend is applicable only to US Government
 contracts under FAR:
  
                    RESTRICTED RIGHTS LEGEND
  
 Use, reproduction and disclosure by the US Government is
 subject to restrictions as set forth in subparagraphs (a)
 and (c) of the Commercial Computer Software - Restricted
 Rights clause in FAR 52.227-19.
  
 Gaussian, Inc.
 340 Quinnipiac St., Bldg. 40, Wallingford CT 06492
  
  
 ---------------------------------------------------------------
 Warning -- This program may not be used in any manner that
 competes with the business of Gaussian, Inc. or will provide
 assistance to any competitor of Gaussian, Inc.  The licensee
 of this program is prohibited from giving any competitor of
 Gaussian, Inc. access to this program.  By using this program,
 the user acknowledges that Gaussian, Inc. is engaged in the
 business of creating and licensing software in the field of
 computational chemistry and represents and warrants to the
 licensee that it is not a competitor of Gaussian, Inc. and that
 it will not use this program in any manner prohibited above.
 ---------------------------------------------------------------
  

 Cite this work as:
 Gaussian 09, Revision D.01,
 M. J. Frisch, G. W. Trucks, H. B. Schlegel, G. E. Scuseria, 
 M. A. Robb, J. R. Cheeseman, G. Scalmani, V. Barone, B. Mennucci, 
 G. A. Petersson, H. Nakatsuji, M. Caricato, X. Li, H. P. Hratchian, 
 A. F. Izmaylov, J. Bloino, G. Zheng, J. L. Sonnenberg, M. Hada, 
 M. Ehara, K. Toyota, R. Fukuda, J. Hasegawa, M. Ishida, T. Nakajima, 
 Y. Honda, O. Kitao, H. Nakai, T. Vreven, J. A. Montgomery, Jr., 
 J. E. Peralta, F. Ogliaro, M. Bearpark, J. J. Heyd, E. Brothers, 
 K. N. Kudin, V. N. Staroverov, T. Keith, R. Kobayashi, J. Normand, 
 K. Raghavachari, A. Rendell, J. C. Burant, S. S. Iyengar, J. Tomasi, 
 M. Cossi, N. Rega, J. M. Millam, M. Klene, J. E. Knox, J. B. Cross, 
 V. Bakken, C. Adamo, J. Jaramillo, R. Gomperts, R. E. Stratmann, 
 O. Yazyev, A. J. Austin, R. Cammi, C. Pomelli, J. W. Ochterski, 
 R. L. Martin, K. Morokuma, V. G. Zakrzewski, G. A. Voth, 
 P. Salvador, J. J. Dannenberg, S. Dapprich, A. D. Daniels, 
 O. Farkas, J. B. Foresman, J. V. Ortiz, J. Cioslowski, 
 and D. J. Fox, Gaussian, Inc., Wallingford CT, 2013.
 
 ******************************************
 Gaussian 09:  ES64L-G09RevD.01 24-Apr-2013
                24-Jun-2019 
 ******************************************
 %Chk=Int3a_sp
 %NProcShared=24
 Will use up to   24 processors via shared memory.
 %Mem=58600MB
 ----------------------------------------------------------------------
 #P M062X/6-311++G(d,p) Freq SCRF(SMD) SCF(Conver=9) Int(Grid=UltraFine
 ) Geom(Check) Guess(Read)
 ----------------------------------------------------------------------
 1/10=4,29=2,30=1,38=1/1,3;
 2/12=2,40=1/2;
 3/5=4,6=6,7=1111,11=2,14=-4,16=1,25=1,30=1,70=32201,71=2,72=1,74=-55,75=-5,116=-2,140=1/1,2,3;
 4/5=1/1;
 5/5=2,6=9,38=6,98=1/2;
 8/6=4,10=90,11=11/1;
 11/6=1,8=1,9=11,15=111,16=1/1,2,10;
 10/6=1/2;
 6/7=2,8=2,9=2,10=2,18=1,28=1/1;
 7/8=1,10=1,25=1/1,2,3,16;
 1/10=4,30=1/3;
 99//99;
 Leave Link    1 at Mon Jun 24 13:11:00 2019, MaxMem=  7680819200 cpu:         1.4
 (Enter /apps/gaussian/g09_d01/g09/l101.exe)
 ----------------------------------------------
 Int3a_sp freq on opt struct; diffuse functions
 ----------------------------------------------
 Structure from the checkpoint file:  "Int3a_sp.chk"
 Charge =  0 Multiplicity = 1
 Redundant internal coordinates found in file.
 P,0,-2.3606554482,-0.6668527982,0.2196786949
 S,0,-1.3048766942,-1.1276485896,-1.5384389645
 O,0,-3.7504321628,-0.1054678929,-0.3370154352
 C,0,0.3774209622,-1.2545745418,-0.8060249088
 C,0,-3.8425220746,1.250683511,-0.8609882439
 O,0,-1.6046501171,0.2862943953,1.0984040465
 C,0,-2.8281104382,-2.191542899,1.0209119738
 H,0,-1.9173925689,-2.7243884558,1.301881673
 H,0,-3.4222629565,-2.8035461908,0.3424104866
 H,0,-3.4014072645,-1.9492290366,1.9178629155
 H,0,-4.5063423707,1.1802996402,-1.7209147035
 H,0,-2.857316652,1.5738625576,-1.2063515054
 C,0,-4.3929297011,2.1729471775,0.200137436
 H,0,-4.512422309,3.1745091284,-0.2185678085
 H,0,-3.7154877498,2.2302253044,1.0539687778
 H,0,-5.3684764889,1.8223540237,0.5416448392
 C,0,1.0797838894,0.1020657258,-0.8066447877
 H,0,0.295480208,-1.6749387433,0.197576935
 H,0,0.8904126064,-1.9814387313,-1.4348853811
 H,0,1.3531783106,0.3432476121,-1.8427037691
 N,0,2.2245343481,0.150921106,0.1087606001
 H,0,0.3696663405,0.8630093435,-0.4757729748
 C,0,2.7677115312,1.5299512597,0.2380402064
 C,0,3.2398113975,-0.8963337138,-0.1413575136
 C,0,4.1600901927,-1.0604702059,1.06669065
 C,0,4.0511042846,-0.7128581694,-1.4254059633
 H,0,2.6794099239,-1.8310635599,-0.2279360247
 H,0,3.8073838628,1.4227385795,0.55152352
 C,0,2.024854615,2.2810864791,1.342414847
 C,0,2.7618147777,2.3588807629,-1.0527411797
 H,0,3.578084533,-1.1523262957,1.9872676806
 H,0,4.8538154584,-0.2236423371,1.1752349823
 H,0,4.7578563708,-1.9671657414,0.9475900856
 H,0,3.4058404031,-0.5928183708,-2.2994250939
 H,0,4.68088497,-1.590842598,-1.5895177729
 H,0,4.7059723494,0.1600442465,-1.3530299957
 H,0,2.3786503629,3.3135978318,1.4006973363
 H,0,2.1835571313,1.8070073203,2.31268329
 H,0,0.9485883509,2.3042288556,1.1429261178
 H,0,3.3417985421,3.270042962,-0.8883122566
 H,0,1.747385637,2.6591952464,-1.3287712401
 H,0,3.2033556229,1.8231833604,-1.8942424816
 O,0,0.7541094836,-0.5432021311,2.4580727035
 H,0,-0.1108506661,-0.2672527979,2.1114828271
 H,0,1.3665261967,-0.3091446294,1.7206553797
 Recover connectivity data from disk.
 NAtoms=     45 NQM=       45 NQMF=       0 NMMI=      0 NMMIF=      0
                NMic=       0 NMicF=      0.
                    Isotopes and Nuclear Properties:
 (Nuclear quadrupole moments (NQMom) in fm**2, nuclear magnetic moments (NMagM)
  in nuclear magnetons)

  Atom         1           2           3           4           5           6           7           8           9          10
 IAtWgt=          31          32          16          12          12          16          12           1           1           1
 AtmWgt=  30.9737634  31.9720718  15.9949146  12.0000000  12.0000000  15.9949146  12.0000000   1.0078250   1.0078250   1.0078250
 NucSpn=           1           0           0           0           0           0           0           1           1           1
 AtZEff= -12.9400000 -13.6000000  -5.6000000  -3.6000000  -3.6000000  -5.6000000  -3.6000000  -1.0000000  -1.0000000  -1.0000000
 NQMom=    0.0000000   0.0000000   0.0000000   0.0000000   0.0000000   0.0000000   0.0000000   0.0000000   0.0000000   0.0000000
 NMagM=    1.1316000   0.0000000   0.0000000   0.0000000   0.0000000   0.0000000   0.0000000   2.7928460   2.7928460   2.7928460
 AtZNuc=  15.0000000  16.0000000   8.0000000   6.0000000   6.0000000   8.0000000   6.0000000   1.0000000   1.0000000   1.0000000

  Atom        11          12          13          14          15          16          17          18          19          20
 IAtWgt=           1           1          12           1           1           1          12           1           1           1
 AtmWgt=   1.0078250   1.0078250  12.0000000   1.0078250   1.0078250   1.0078250  12.0000000   1.0078250   1.0078250   1.0078250
 NucSpn=           1           1           0           1           1           1           0           1           1           1
 AtZEff=  -1.0000000  -1.0000000  -3.6000000  -1.0000000  -1.0000000  -1.0000000  -3.6000000  -1.0000000  -1.0000000  -1.0000000
 NQMom=    0.0000000   0.0000000   0.0000000   0.0000000   0.0000000   0.0000000   0.0000000   0.0000000   0.0000000   0.0000000
 NMagM=    2.7928460   2.7928460   0.0000000   2.7928460   2.7928460   2.7928460   0.0000000   2.7928460   2.7928460   2.7928460
 AtZNuc=   1.0000000   1.0000000   6.0000000   1.0000000   1.0000000   1.0000000   6.0000000   1.0000000   1.0000000   1.0000000

  Atom        21          22          23          24          25          26          27          28          29          30
 IAtWgt=          14           1          12          12          12          12           1           1          12          12
 AtmWgt=  14.0030740   1.0078250  12.0000000  12.0000000  12.0000000  12.0000000   1.0078250   1.0078250  12.0000000  12.0000000
 NucSpn=           2           1           0           0           0           0           1           1           0           0
 AtZEff=  -4.5500000  -1.0000000  -3.6000000  -3.6000000  -3.6000000  -3.6000000  -1.0000000  -1.0000000  -3.6000000  -3.6000000
 NQMom=    2.0440000   0.0000000   0.0000000   0.0000000   0.0000000   0.0000000   0.0000000   0.0000000   0.0000000   0.0000000
 NMagM=    0.4037610   2.7928460   0.0000000   0.0000000   0.0000000   0.0000000   2.7928460   2.7928460   0.0000000   0.0000000
 AtZNuc=   7.0000000   1.0000000   6.0000000   6.0000000   6.0000000   6.0000000   1.0000000   1.0000000   6.0000000   6.0000000

  Atom        31          32          33          34          35          36          37          38          39          40
 IAtWgt=           1           1           1           1           1           1           1           1           1           1
 AtmWgt=   1.0078250   1.0078250   1.0078250   1.0078250   1.0078250   1.0078250   1.0078250   1.0078250   1.0078250   1.0078250
 NucSpn=           1           1           1           1           1           1           1           1           1           1
 AtZEff=  -1.0000000  -1.0000000  -1.0000000  -1.0000000  -1.0000000  -1.0000000  -1.0000000  -1.0000000  -1.0000000  -1.0000000
 NQMom=    0.0000000   0.0000000   0.0000000   0.0000000   0.0000000   0.0000000   0.0000000   0.0000000   0.0000000   0.0000000
 NMagM=    2.7928460   2.7928460   2.7928460   2.7928460   2.7928460   2.7928460   2.7928460   2.7928460   2.7928460   2.7928460
 AtZNuc=   1.0000000   1.0000000   1.0000000   1.0000000   1.0000000   1.0000000   1.0000000   1.0000000   1.0000000   1.0000000

  Atom        41          42          43          44          45
 IAtWgt=           1           1          16           1           1
 AtmWgt=   1.0078250   1.0078250  15.9949146   1.0078250   1.0078250
 NucSpn=           1           1           0           1           1
 AtZEff=  -1.0000000  -1.0000000  -5.6000000  -1.0000000  -1.0000000
 NQMom=    0.0000000   0.0000000   0.0000000   0.0000000   0.0000000
 NMagM=    2.7928460   2.7928460   0.0000000   2.7928460   2.7928460
 AtZNuc=   1.0000000   1.0000000   8.0000000   1.0000000   1.0000000
 Leave Link  101 at Mon Jun 24 13:11:01 2019, MaxMem=  7680819200 cpu:        12.8
 (Enter /apps/gaussian/g09_d01/g09/l103.exe)

 GradGradGradGradGradGradGradGradGradGradGradGradGradGradGradGradGradGrad
 Berny optimization.
 Initialization pass.
                           ----------------------------
                           !    Initial Parameters    !
                           ! (Angstroms and Degrees)  !
 --------------------------                            --------------------------
 ! Name  Definition              Value          Derivative Info.                !
 --------------------------------------------------------------------------------
 ! R1    R(1,2)                  2.1019         calculate D2E/DX2 analytically  !
 ! R2    R(1,3)                  1.5989         calculate D2E/DX2 analytically  !
 ! R3    R(1,6)                  1.5007         calculate D2E/DX2 analytically  !
 ! R4    R(1,7)                  1.7847         calculate D2E/DX2 analytically  !
 ! R5    R(2,4)                  1.8392         calculate D2E/DX2 analytically  !
 ! R6    R(3,5)                  1.4568         calculate D2E/DX2 analytically  !
 ! R7    R(4,17)                 1.5277         calculate D2E/DX2 analytically  !
 ! R8    R(4,18)                 1.0912         calculate D2E/DX2 analytically  !
 ! R9    R(4,19)                 1.0895         calculate D2E/DX2 analytically  !
 ! R10   R(5,11)                 1.0886         calculate D2E/DX2 analytically  !
 ! R11   R(5,12)                 1.0929         calculate D2E/DX2 analytically  !
 ! R12   R(5,13)                 1.5098         calculate D2E/DX2 analytically  !
 ! R13   R(6,44)                 1.8879         calculate D2E/DX2 analytically  !
 ! R14   R(7,8)                  1.0919         calculate D2E/DX2 analytically  !
 ! R15   R(7,9)                  1.0899         calculate D2E/DX2 analytically  !
 ! R16   R(7,10)                 1.0917         calculate D2E/DX2 analytically  !
 ! R17   R(13,14)                1.0921         calculate D2E/DX2 analytically  !
 ! R18   R(13,15)                1.0914         calculate D2E/DX2 analytically  !
 ! R19   R(13,16)                1.0914         calculate D2E/DX2 analytically  !
 ! R20   R(17,20)                1.0983         calculate D2E/DX2 analytically  !
 ! R21   R(17,21)                1.4666         calculate D2E/DX2 analytically  !
 ! R22   R(17,22)                1.0921         calculate D2E/DX2 analytically  !
 ! R23   R(21,23)                1.4878         calculate D2E/DX2 analytically  !
 ! R24   R(21,24)                1.4799         calculate D2E/DX2 analytically  !
 ! R25   R(21,45)                1.8831         calculate D2E/DX2 analytically  !
 ! R26   R(23,28)                1.0912         calculate D2E/DX2 analytically  !
 ! R27   R(23,29)                1.5283         calculate D2E/DX2 analytically  !
 ! R28   R(23,30)                1.534          calculate D2E/DX2 analytically  !
 ! R29   R(24,25)                1.5275         calculate D2E/DX2 analytically  !
 ! R30   R(24,26)                1.5299         calculate D2E/DX2 analytically  !
 ! R31   R(24,27)                1.0933         calculate D2E/DX2 analytically  !
 ! R32   R(25,31)                1.093          calculate D2E/DX2 analytically  !
 ! R33   R(25,32)                1.0924         calculate D2E/DX2 analytically  !
 ! R34   R(25,33)                1.0925         calculate D2E/DX2 analytically  !
 ! R35   R(26,34)                1.093          calculate D2E/DX2 analytically  !
 ! R36   R(26,35)                1.0929         calculate D2E/DX2 analytically  !
 ! R37   R(26,36)                1.0936         calculate D2E/DX2 analytically  !
 ! R38   R(29,37)                1.093          calculate D2E/DX2 analytically  !
 ! R39   R(29,38)                1.0915         calculate D2E/DX2 analytically  !
 ! R40   R(29,39)                1.0948         calculate D2E/DX2 analytically  !
 ! R41   R(30,40)                1.0925         calculate D2E/DX2 analytically  !
 ! R42   R(30,41)                1.0934         calculate D2E/DX2 analytically  !
 ! R43   R(30,42)                1.0909         calculate D2E/DX2 analytically  !
 ! R44   R(43,44)                0.9718         calculate D2E/DX2 analytically  !
 ! R45   R(43,45)                0.9867         calculate D2E/DX2 analytically  !
 ! A1    A(2,1,3)              102.8468         calculate D2E/DX2 analytically  !
 ! A2    A(2,1,6)              112.0839         calculate D2E/DX2 analytically  !
 ! A3    A(2,1,7)              108.6503         calculate D2E/DX2 analytically  !
 ! A4    A(3,1,6)              114.7548         calculate D2E/DX2 analytically  !
 ! A5    A(3,1,7)              103.2144         calculate D2E/DX2 analytically  !
 ! A6    A(6,1,7)              114.3095         calculate D2E/DX2 analytically  !
 ! A7    A(1,2,4)               98.1337         calculate D2E/DX2 analytically  !
 ! A8    A(1,3,5)              120.4661         calculate D2E/DX2 analytically  !
 ! A9    A(2,4,17)             111.0443         calculate D2E/DX2 analytically  !
 ! A10   A(2,4,18)             108.915          calculate D2E/DX2 analytically  !
 ! A11   A(2,4,19)             104.2926         calculate D2E/DX2 analytically  !
 ! A12   A(17,4,18)            112.1487         calculate D2E/DX2 analytically  !
 ! A13   A(17,4,19)            112.0711         calculate D2E/DX2 analytically  !
 ! A14   A(18,4,19)            108.0129         calculate D2E/DX2 analytically  !
 ! A15   A(3,5,11)             105.2173         calculate D2E/DX2 analytically  !
 ! A16   A(3,5,12)             109.3884         calculate D2E/DX2 analytically  !
 ! A17   A(3,5,13)             109.8106         calculate D2E/DX2 analytically  !
 ! A18   A(11,5,12)            108.6148         calculate D2E/DX2 analytically  !
 ! A19   A(11,5,13)            111.862          calculate D2E/DX2 analytically  !
 ! A20   A(12,5,13)            111.7223         calculate D2E/DX2 analytically  !
 ! A21   A(1,6,44)             121.7747         calculate D2E/DX2 analytically  !
 ! A22   A(1,7,8)              108.298          calculate D2E/DX2 analytically  !
 ! A23   A(1,7,9)              110.0603         calculate D2E/DX2 analytically  !
 ! A24   A(1,7,10)             108.4676         calculate D2E/DX2 analytically  !
 ! A25   A(8,7,9)              109.9284         calculate D2E/DX2 analytically  !
 ! A26   A(8,7,10)             109.5655         calculate D2E/DX2 analytically  !
 ! A27   A(9,7,10)             110.4762         calculate D2E/DX2 analytically  !
 ! A28   A(5,13,14)            109.3072         calculate D2E/DX2 analytically  !
 ! A29   A(5,13,15)            110.8303         calculate D2E/DX2 analytically  !
 ! A30   A(5,13,16)            110.4592         calculate D2E/DX2 analytically  !
 ! A31   A(14,13,15)           108.6453         calculate D2E/DX2 analytically  !
 ! A32   A(14,13,16)           108.4666         calculate D2E/DX2 analytically  !
 ! A33   A(15,13,16)           109.0783         calculate D2E/DX2 analytically  !
 ! A34   A(4,17,20)            108.049          calculate D2E/DX2 analytically  !
 ! A35   A(4,17,21)            112.8427         calculate D2E/DX2 analytically  !
 ! A36   A(4,17,22)            108.6434         calculate D2E/DX2 analytically  !
 ! A37   A(20,17,21)           112.7793         calculate D2E/DX2 analytically  !
 ! A38   A(20,17,22)           107.1353         calculate D2E/DX2 analytically  !
 ! A39   A(21,17,22)           107.1706         calculate D2E/DX2 analytically  !
 ! A40   A(17,21,23)           111.7215         calculate D2E/DX2 analytically  !
 ! A41   A(17,21,24)           113.9812         calculate D2E/DX2 analytically  !
 ! A42   A(17,21,45)            99.8167         calculate D2E/DX2 analytically  !
 ! A43   A(23,21,24)           114.8438         calculate D2E/DX2 analytically  !
 ! A44   A(23,21,45)           108.5678         calculate D2E/DX2 analytically  !
 ! A45   A(24,21,45)           106.5211         calculate D2E/DX2 analytically  !
 ! A46   A(21,23,28)           106.3647         calculate D2E/DX2 analytically  !
 ! A47   A(21,23,29)           109.9313         calculate D2E/DX2 analytically  !
 ! A48   A(21,23,30)           115.2357         calculate D2E/DX2 analytically  !
 ! A49   A(28,23,29)           107.6868         calculate D2E/DX2 analytically  !
 ! A50   A(28,23,30)           107.3667         calculate D2E/DX2 analytically  !
 ! A51   A(29,23,30)           109.9125         calculate D2E/DX2 analytically  !
 ! A52   A(21,24,25)           110.8365         calculate D2E/DX2 analytically  !
 ! A53   A(21,24,26)           114.8842         calculate D2E/DX2 analytically  !
 ! A54   A(21,24,27)           105.4712         calculate D2E/DX2 analytically  !
 ! A55   A(25,24,26)           110.9267         calculate D2E/DX2 analytically  !
 ! A56   A(25,24,27)           106.2351         calculate D2E/DX2 analytically  !
 ! A57   A(26,24,27)           107.9319         calculate D2E/DX2 analytically  !
 ! A58   A(24,25,31)           110.7525         calculate D2E/DX2 analytically  !
 ! A59   A(24,25,32)           112.2638         calculate D2E/DX2 analytically  !
 ! A60   A(24,25,33)           109.4268         calculate D2E/DX2 analytically  !
 ! A61   A(31,25,32)           108.5933         calculate D2E/DX2 analytically  !
 ! A62   A(31,25,33)           108.2654         calculate D2E/DX2 analytically  !
 ! A63   A(32,25,33)           107.4049         calculate D2E/DX2 analytically  !
 ! A64   A(24,26,34)           111.7926         calculate D2E/DX2 analytically  !
 ! A65   A(24,26,35)           109.5887         calculate D2E/DX2 analytically  !
 ! A66   A(24,26,36)           110.9596         calculate D2E/DX2 analytically  !
 ! A67   A(34,26,35)           107.9594         calculate D2E/DX2 analytically  !
 ! A68   A(34,26,36)           108.5881         calculate D2E/DX2 analytically  !
 ! A69   A(35,26,36)           107.8238         calculate D2E/DX2 analytically  !
 ! A70   A(23,29,37)           110.2112         calculate D2E/DX2 analytically  !
 ! A71   A(23,29,38)           110.9907         calculate D2E/DX2 analytically  !
 ! A72   A(23,29,39)           110.8881         calculate D2E/DX2 analytically  !
 ! A73   A(37,29,38)           108.4113         calculate D2E/DX2 analytically  !
 ! A74   A(37,29,39)           107.9356         calculate D2E/DX2 analytically  !
 ! A75   A(38,29,39)           108.3055         calculate D2E/DX2 analytically  !
 ! A76   A(23,30,40)           108.7824         calculate D2E/DX2 analytically  !
 ! A77   A(23,30,41)           111.3714         calculate D2E/DX2 analytically  !
 ! A78   A(23,30,42)           112.4675         calculate D2E/DX2 analytically  !
 ! A79   A(40,30,41)           107.5452         calculate D2E/DX2 analytically  !
 ! A80   A(40,30,42)           108.1056         calculate D2E/DX2 analytically  !
 ! A81   A(41,30,42)           108.401          calculate D2E/DX2 analytically  !
 ! A82   A(44,43,45)           102.6224         calculate D2E/DX2 analytically  !
 ! A83   L(6,44,43,4,-1)       169.415          calculate D2E/DX2 analytically  !
 ! A84   L(21,45,43,1,-1)      168.6854         calculate D2E/DX2 analytically  !
 ! A85   L(6,44,43,4,-2)       174.6825         calculate D2E/DX2 analytically  !
 ! A86   L(21,45,43,1,-2)      180.8655         calculate D2E/DX2 analytically  !
 ! D1    D(3,1,2,4)            163.7212         calculate D2E/DX2 analytically  !
 ! D2    D(6,1,2,4)             39.9403         calculate D2E/DX2 analytically  !
 ! D3    D(7,1,2,4)            -87.3476         calculate D2E/DX2 analytically  !
 ! D4    D(2,1,3,5)            -77.7888         calculate D2E/DX2 analytically  !
 ! D5    D(6,1,3,5)             44.2028         calculate D2E/DX2 analytically  !
 ! D6    D(7,1,3,5)            169.2273         calculate D2E/DX2 analytically  !
 ! D7    D(2,1,6,44)           -74.4751         calculate D2E/DX2 analytically  !
 ! D8    D(3,1,6,44)           168.6968         calculate D2E/DX2 analytically  !
 ! D9    D(7,1,6,44)            49.7165         calculate D2E/DX2 analytically  !
 ! D10   D(2,1,7,8)             62.8072         calculate D2E/DX2 analytically  !
 ! D11   D(2,1,7,9)            -57.3873         calculate D2E/DX2 analytically  !
 ! D12   D(2,1,7,10)          -178.3568         calculate D2E/DX2 analytically  !
 ! D13   D(3,1,7,8)            171.4884         calculate D2E/DX2 analytically  !
 ! D14   D(3,1,7,9)             51.294          calculate D2E/DX2 analytically  !
 ! D15   D(3,1,7,10)           -69.6756         calculate D2E/DX2 analytically  !
 ! D16   D(6,1,7,8)            -63.1986         calculate D2E/DX2 analytically  !
 ! D17   D(6,1,7,9)            176.607          calculate D2E/DX2 analytically  !
 ! D18   D(6,1,7,10)            55.6374         calculate D2E/DX2 analytically  !
 ! D19   D(1,2,4,17)           -89.1185         calculate D2E/DX2 analytically  !
 ! D20   D(1,2,4,18)            34.8583         calculate D2E/DX2 analytically  !
 ! D21   D(1,2,4,19)           149.985          calculate D2E/DX2 analytically  !
 ! D22   D(1,3,5,11)           141.3193         calculate D2E/DX2 analytically  !
 ! D23   D(1,3,5,12)            24.805          calculate D2E/DX2 analytically  !
 ! D24   D(1,3,5,13)           -98.1388         calculate D2E/DX2 analytically  !
 ! D25   D(2,4,17,20)          -71.9892         calculate D2E/DX2 analytically  !
 ! D26   D(2,4,17,21)          162.6206         calculate D2E/DX2 analytically  !
 ! D27   D(2,4,17,22)           43.9222         calculate D2E/DX2 analytically  !
 ! D28   D(18,4,17,20)         165.8961         calculate D2E/DX2 analytically  !
 ! D29   D(18,4,17,21)          40.5058         calculate D2E/DX2 analytically  !
 ! D30   D(18,4,17,22)         -78.1926         calculate D2E/DX2 analytically  !
 ! D31   D(19,4,17,20)          44.2066         calculate D2E/DX2 analytically  !
 ! D32   D(19,4,17,21)         -81.1837         calculate D2E/DX2 analytically  !
 ! D33   D(19,4,17,22)         160.1179         calculate D2E/DX2 analytically  !
 ! D34   D(3,5,13,14)         -176.7758         calculate D2E/DX2 analytically  !
 ! D35   D(3,5,13,15)           63.5054         calculate D2E/DX2 analytically  !
 ! D36   D(3,5,13,16)          -57.5058         calculate D2E/DX2 analytically  !
 ! D37   D(11,5,13,14)         -60.3431         calculate D2E/DX2 analytically  !
 ! D38   D(11,5,13,15)         179.9381         calculate D2E/DX2 analytically  !
 ! D39   D(11,5,13,16)          58.9268         calculate D2E/DX2 analytically  !
 ! D40   D(12,5,13,14)          61.6676         calculate D2E/DX2 analytically  !
 ! D41   D(12,5,13,15)         -58.0512         calculate D2E/DX2 analytically  !
 ! D42   D(12,5,13,16)        -179.0625         calculate D2E/DX2 analytically  !
 ! D43   D(1,6,43,45)           88.6972         calculate D2E/DX2 analytically  !
 ! D44   D(4,17,21,23)        -171.7521         calculate D2E/DX2 analytically  !
 ! D45   D(4,17,21,24)          56.0107         calculate D2E/DX2 analytically  !
 ! D46   D(4,17,21,45)         -57.12           calculate D2E/DX2 analytically  !
 ! D47   D(20,17,21,23)         65.46           calculate D2E/DX2 analytically  !
 ! D48   D(20,17,21,24)        -66.7773         calculate D2E/DX2 analytically  !
 ! D49   D(20,17,21,45)       -179.908          calculate D2E/DX2 analytically  !
 ! D50   D(22,17,21,23)        -52.1996         calculate D2E/DX2 analytically  !
 ! D51   D(22,17,21,24)        175.5632         calculate D2E/DX2 analytically  !
 ! D52   D(22,17,21,45)         62.4325         calculate D2E/DX2 analytically  !
 ! D53   D(17,21,23,28)       -156.1894         calculate D2E/DX2 analytically  !
 ! D54   D(17,21,23,29)         87.4962         calculate D2E/DX2 analytically  !
 ! D55   D(17,21,23,30)        -37.3528         calculate D2E/DX2 analytically  !
 ! D56   D(24,21,23,28)        -24.3867         calculate D2E/DX2 analytically  !
 ! D57   D(24,21,23,29)       -140.701          calculate D2E/DX2 analytically  !
 ! D58   D(24,21,23,30)         94.4499         calculate D2E/DX2 analytically  !
 ! D59   D(45,21,23,28)         94.6979         calculate D2E/DX2 analytically  !
 ! D60   D(45,21,23,29)        -21.6164         calculate D2E/DX2 analytically  !
 ! D61   D(45,21,23,30)       -146.4655         calculate D2E/DX2 analytically  !
 ! D62   D(17,21,24,25)       -162.8084         calculate D2E/DX2 analytically  !
 ! D63   D(17,21,24,26)         70.4779         calculate D2E/DX2 analytically  !
 ! D64   D(17,21,24,27)        -48.2428         calculate D2E/DX2 analytically  !
 ! D65   D(23,21,24,25)         66.4745         calculate D2E/DX2 analytically  !
 ! D66   D(23,21,24,26)        -60.2392         calculate D2E/DX2 analytically  !
 ! D67   D(23,21,24,27)       -178.96           calculate D2E/DX2 analytically  !
 ! D68   D(45,21,24,25)        -53.7467         calculate D2E/DX2 analytically  !
 ! D69   D(45,21,24,26)        179.5395         calculate D2E/DX2 analytically  !
 ! D70   D(45,21,24,27)         60.8188         calculate D2E/DX2 analytically  !
 ! D71   D(17,21,43,44)        -22.0258         calculate D2E/DX2 analytically  !
 ! D72   D(23,21,43,44)         93.6776         calculate D2E/DX2 analytically  !
 ! D73   D(24,21,43,44)       -139.8309         calculate D2E/DX2 analytically  !
 ! D74   D(21,23,29,37)       -176.5855         calculate D2E/DX2 analytically  !
 ! D75   D(21,23,29,38)         63.2997         calculate D2E/DX2 analytically  !
 ! D76   D(21,23,29,39)        -57.1309         calculate D2E/DX2 analytically  !
 ! D77   D(28,23,29,37)         67.9341         calculate D2E/DX2 analytically  !
 ! D78   D(28,23,29,38)        -52.1807         calculate D2E/DX2 analytically  !
 ! D79   D(28,23,29,39)       -172.6113         calculate D2E/DX2 analytically  !
 ! D80   D(30,23,29,37)        -48.7282         calculate D2E/DX2 analytically  !
 ! D81   D(30,23,29,38)       -168.8429         calculate D2E/DX2 analytically  !
 ! D82   D(30,23,29,39)         70.7264         calculate D2E/DX2 analytically  !
 ! D83   D(21,23,30,40)       -169.7216         calculate D2E/DX2 analytically  !
 ! D84   D(21,23,30,41)         71.9185         calculate D2E/DX2 analytically  !
 ! D85   D(21,23,30,42)        -49.9956         calculate D2E/DX2 analytically  !
 ! D86   D(28,23,30,40)        -51.4432         calculate D2E/DX2 analytically  !
 ! D87   D(28,23,30,41)       -169.8031         calculate D2E/DX2 analytically  !
 ! D88   D(28,23,30,42)         68.2828         calculate D2E/DX2 analytically  !
 ! D89   D(29,23,30,40)         65.4196         calculate D2E/DX2 analytically  !
 ! D90   D(29,23,30,41)        -52.9403         calculate D2E/DX2 analytically  !
 ! D91   D(29,23,30,42)       -174.8544         calculate D2E/DX2 analytically  !
 ! D92   D(21,24,25,31)         48.9256         calculate D2E/DX2 analytically  !
 ! D93   D(21,24,25,32)        -72.646          calculate D2E/DX2 analytically  !
 ! D94   D(21,24,25,33)        168.2028         calculate D2E/DX2 analytically  !
 ! D95   D(26,24,25,31)        177.7962         calculate D2E/DX2 analytically  !
 ! D96   D(26,24,25,32)         56.2246         calculate D2E/DX2 analytically  !
 ! D97   D(26,24,25,33)        -62.9266         calculate D2E/DX2 analytically  !
 ! D98   D(27,24,25,31)        -65.16           calculate D2E/DX2 analytically  !
 ! D99   D(27,24,25,32)        173.2683         calculate D2E/DX2 analytically  !
 ! D100  D(27,24,25,33)         54.1171         calculate D2E/DX2 analytically  !
 ! D101  D(21,24,26,34)        -53.2663         calculate D2E/DX2 analytically  !
 ! D102  D(21,24,26,35)       -172.92           calculate D2E/DX2 analytically  !
 ! D103  D(21,24,26,36)         68.118          calculate D2E/DX2 analytically  !
 ! D104  D(25,24,26,34)       -179.9338         calculate D2E/DX2 analytically  !
 ! D105  D(25,24,26,35)         60.4125         calculate D2E/DX2 analytically  !
 ! D106  D(25,24,26,36)        -58.5496         calculate D2E/DX2 analytically  !
 ! D107  D(27,24,26,34)         64.0674         calculate D2E/DX2 analytically  !
 ! D108  D(27,24,26,35)        -55.5863         calculate D2E/DX2 analytically  !
 ! D109  D(27,24,26,36)       -174.5484         calculate D2E/DX2 analytically  !
 --------------------------------------------------------------------------------
 Trust Radius=3.00D-01 FncErr=1.00D-07 GrdErr=1.00D-07
 Number of steps in this run=      2 maximum allowed number of steps=      2.
 GradGradGradGradGradGradGradGradGradGradGradGradGradGradGradGradGradGrad

 Leave Link  103 at Mon Jun 24 13:11:01 2019, MaxMem=  7680819200 cpu:         0.4
 (Enter /apps/gaussian/g09_d01/g09/l202.exe)
                          Input orientation:                          
 ---------------------------------------------------------------------
 Center     Atomic      Atomic             Coordinates (Angstroms)
 Number     Number       Type             X           Y           Z
 ---------------------------------------------------------------------
      1         15           0       -2.360655   -0.666853    0.219679
      2         16           0       -1.304877   -1.127649   -1.538439
      3          8           0       -3.750432   -0.105468   -0.337015
      4          6           0        0.377421   -1.254575   -0.806025
      5          6           0       -3.842522    1.250684   -0.860988
      6          8           0       -1.604650    0.286294    1.098404
      7          6           0       -2.828110   -2.191543    1.020912
      8          1           0       -1.917393   -2.724388    1.301882
      9          1           0       -3.422263   -2.803546    0.342410
     10          1           0       -3.401407   -1.949229    1.917863
     11          1           0       -4.506342    1.180300   -1.720915
     12          1           0       -2.857317    1.573863   -1.206352
     13          6           0       -4.392930    2.172947    0.200137
     14          1           0       -4.512422    3.174509   -0.218568
     15          1           0       -3.715488    2.230225    1.053969
     16          1           0       -5.368476    1.822354    0.541645
     17          6           0        1.079784    0.102066   -0.806645
     18          1           0        0.295480   -1.674939    0.197577
     19          1           0        0.890413   -1.981439   -1.434885
     20          1           0        1.353178    0.343248   -1.842704
     21          7           0        2.224534    0.150921    0.108761
     22          1           0        0.369666    0.863009   -0.475773
     23          6           0        2.767712    1.529951    0.238040
     24          6           0        3.239811   -0.896334   -0.141358
     25          6           0        4.160090   -1.060470    1.066691
     26          6           0        4.051104   -0.712858   -1.425406
     27          1           0        2.679410   -1.831064   -0.227936
     28          1           0        3.807384    1.422739    0.551524
     29          6           0        2.024855    2.281086    1.342415
     30          6           0        2.761815    2.358881   -1.052741
     31          1           0        3.578085   -1.152326    1.987268
     32          1           0        4.853815   -0.223642    1.175235
     33          1           0        4.757856   -1.967166    0.947590
     34          1           0        3.405840   -0.592818   -2.299425
     35          1           0        4.680885   -1.590843   -1.589518
     36          1           0        4.705972    0.160044   -1.353030
     37          1           0        2.378650    3.313598    1.400697
     38          1           0        2.183557    1.807007    2.312683
     39          1           0        0.948588    2.304229    1.142926
     40          1           0        3.341799    3.270043   -0.888312
     41          1           0        1.747386    2.659195   -1.328771
     42          1           0        3.203356    1.823183   -1.894242
     43          8           0        0.754109   -0.543202    2.458073
     44          1           0       -0.110851   -0.267253    2.111483
     45          1           0        1.366526   -0.309145    1.720655
 ---------------------------------------------------------------------
                    Distance matrix (angstroms):
                    1          2          3          4          5
     1  P    0.000000
     2  S    2.101899   0.000000
     3  O    1.598919   2.910157   0.000000
     4  C    2.982373   1.839203   4.310405   0.000000
     5  C    2.653435   3.543310   1.456769   4.907877   0.000000
     6  O    1.500730   3.006998   2.611185   3.151148   3.126873
     7  C    1.784704   3.162655   2.654497   3.806710   4.052098
     8  H    2.366664   3.315445   3.592320   3.445256   4.917858
     9  H    2.389044   3.290828   2.801596   4.260964   4.249890
    10  H    2.368857   4.125101   2.933556   4.709740   4.260990
    11  H    3.432470   3.950861   2.034644   5.533243   1.088616
    12  H    2.702044   3.133451   2.091304   4.315535   1.092863
    13  C    3.492132   4.842794   2.427450   5.959573   1.509803
    14  H    4.424728   5.526208   3.369408   6.623629   2.136019
    15  H    3.305249   4.879236   2.718735   5.688173   2.154693
    16  H    3.917499   5.435265   2.665822   6.655752   2.150052
    17  C    3.671675   2.781066   4.857428   1.527674   5.054836
    18  H    2.841088   2.423720   4.372463   1.091163   5.177151
    19  H    3.877520   2.357748   5.124649   1.089476   5.759917
    20  H    4.366496   3.053092   5.339970   2.140056   5.364933
    21  N    4.658865   4.099360   5.997056   2.494810   6.241720
    22  H    3.206055   2.809995   4.234668   2.143196   4.247495
    23  C    5.579107   5.177325   6.744737   3.815383   6.706791
    24  C    5.616782   4.760203   7.037560   2.960304   7.435523
    25  C    6.587297   6.054509   8.090660   4.225320   8.549806
    26  C    6.619598   5.373208   7.900474   3.764710   8.153735
    27  H    5.192110   4.252852   6.658262   2.442474   7.241099
    28  H    6.520830   6.083389   7.761797   4.558025   7.781122
    29  C    5.402183   5.568295   6.470708   4.453171   6.351600
    30  C    6.083898   5.378640   6.999617   4.336273   6.699413
    31  H    6.215198   6.022834   7.759211   4.249375   8.303759
    32  H    7.290961   6.790489   8.736930   5.002631   9.052410
    33  H    7.272818   6.606199   8.803812   4.771914   9.359061
    34  H    6.293158   4.801666   7.436451   3.440856   7.616191
    35  H    7.328727   6.003874   8.652295   4.387111   9.014072
    36  H    7.286590   6.150027   8.521359   4.586580   8.631822
    37  H    6.300779   6.475459   7.230167   5.453691   6.933529
    38  H    5.581265   5.967623   6.774267   4.728821   6.833397
    39  H    4.542115   4.903632   5.484310   4.097527   5.299091
    40  H    7.017462   6.430703   7.873864   5.409849   7.462776
    41  H    5.507839   4.868311   6.233213   4.179433   5.783580
    42  H    6.451912   5.399830   7.382399   4.317721   7.144212
    43  O    3.837637   4.533553   5.319307   3.361886   5.946698
    44  H    2.966517   3.935468   4.389518   3.118504   5.006504
    45  H    4.033952   4.292789   5.518945   2.873374   6.019313
                    6          7          8          9         10
     6  O    0.000000
     7  C    2.764514   0.000000
     8  H    3.033714   1.091914   0.000000
     9  H    3.663654   1.089922   1.786473   0.000000
    10  H    2.982853   1.091745   1.783986   1.792301   0.000000
    11  H    4.143383   4.658691   5.575531   4.615579   4.924991
    12  H    2.922140   4.374910   5.064549   4.677557   4.740140
    13  C    3.484371   4.708620   5.596965   5.072270   4.574498
    14  H    4.304804   5.759143   6.621400   6.102482   5.661394
    15  H    2.869926   4.510052   5.276628   5.092264   4.279346
    16  H    4.103151   4.774361   5.758542   5.022588   4.470814
    17  C    3.296868   4.885923   4.627936   5.480085   5.631325
    18  H    2.875486   3.271327   2.686567   3.887975   4.086759
    19  H    4.217287   4.461222   3.990694   4.736435   5.446253
    20  H    4.171583   5.666448   5.476810   6.122244   6.481003
    21  N    3.957319   5.643437   5.181361   6.377287   6.271738
    22  H    2.590089   4.668633   4.610869   5.337769   5.278179
    23  C    4.626495   6.765769   6.417271   7.556843   7.279047
    24  C    5.138524   6.312536   5.658752   6.946562   7.032408
    25  C    5.920052   7.079292   6.305532   7.813768   7.660981
    26  C    6.273395   7.449468   6.863476   7.959106   8.261113
    27  H    4.959390   5.658829   4.926354   6.204952   6.449399
    28  H    5.557040   7.570544   7.108781   8.376933   8.074882
    29  C    4.148740   6.607499   6.371635   7.518284   6.904421
    30  C    5.290468   7.500244   7.299237   8.175568   8.085147
    31  H    5.451646   6.561490   5.756857   7.378140   7.025182
    32  H    6.479021   7.931484   7.219351   8.708787   8.466277
    33  H    6.751468   7.589639   6.727396   8.245006   8.216772
    34  H    6.117442   7.241733   6.771249   7.647850   8.121822
    35  H    7.089183   7.972465   7.292625   8.418076   8.817801
    36  H    6.771220   8.241842   7.696588   8.816212   8.993185
    37  H    5.012248   7.586908   7.411007   8.496471   7.834148
    38  H    4.258821   6.540175   6.194599   7.520931   6.742182
    39  H    3.254699   5.872845   5.790173   6.770121   6.133098
    40  H    6.108777   8.458241   8.269779   9.173641   8.976984
    41  H    4.770533   7.070066   7.023810   7.704522   7.634676
    42  H    5.868124   7.809913   7.557624   8.384990   8.508004
    43  O    2.846140   4.196994   3.637482   5.198776   4.420074
    44  H    1.887904   3.503675   3.155402   4.530767   3.700580
    45  H    3.093482   4.650596   4.097914   5.572621   5.045984
                   11         12         13         14         15
    11  H    0.000000
    12  H    1.771709   0.000000
    13  C    2.165330   2.166846   0.000000
    14  H    2.496789   2.505426   1.092117   0.000000
    15  H    3.070468   2.505258   1.091438   1.773732   0.000000
    16  H    2.504932   3.069717   1.091437   1.771744   1.777978
    17  C    5.762229   4.222169   5.937403   6.407692   5.566469
    18  H    5.906818   4.739816   6.065263   6.841509   5.663177
    19  H    6.261259   5.170867   6.917075   7.566628   6.719139
    20  H    5.920259   4.432564   6.367005   6.712610   6.135371
    21  N    7.050676   5.438703   6.920099   7.391604   6.364023
    22  H    5.042471   3.384151   4.985490   5.407770   4.571419
    23  C    7.541328   5.807679   7.189552   7.477527   6.571757
    24  C    8.173757   6.664162   8.233823   8.756418   7.718832
    25  C    9.375438   7.832651   9.184773   9.736499   8.535430
    26  C    8.769337   7.280340   9.070390   9.481670   8.667698
    27  H    7.932990   6.573139   8.138387   8.762323   7.683233
    28  H    8.622111   6.894287   8.242052   8.537032   7.582749
    29  C    7.297414   5.552654   6.519543   6.780181   5.747810
    30  C    7.393350   5.675781   7.265992   7.367199   6.812505
    31  H    9.195092   7.684120   8.819770   9.436287   8.093757
    32  H    9.898045   8.268285   9.601914  10.060643   8.914546
    33  H   10.141639   8.670018  10.071549  10.664652   9.456583
    34  H    8.129038   6.716878   8.643962   9.012303   8.362305
    35  H    9.596960   8.184538   9.985144  10.445333   9.596231
    36  H    9.275937   7.695696   9.447440   9.764876   9.000016
    37  H    7.854842   6.102355   6.971135   7.080130   6.199390
    38  H    7.836927   6.152103   6.917148   7.287896   6.046669
    39  H    6.262673   4.531827   5.425671   5.695058   4.665511
    40  H    8.164164   6.434843   7.887608   7.883303   7.393170
    41  H    6.438169   4.732464   6.346453   6.378346   5.975320
    42  H    7.738397   6.104679   7.887478   8.010443   7.531801
    43  O    6.935903   5.563485   6.242415   6.980125   5.444328
    44  H    6.008579   4.684101   5.286210   6.053816   4.511002
    45  H    6.968029   5.473019   6.453223   7.103412   5.720117
                   16         17         18         19         20
    16  H    0.000000
    17  C    6.808622   0.000000
    18  H    6.665572   2.186627   0.000000
    19  H    7.586119   2.184385   1.764319   0.000000
    20  H    7.283785   1.098331   3.058520   2.405127   0.000000
    21  N    7.786841   1.466563   2.657612   2.951217   2.145801
    22  H    5.906079   1.092144   2.626801   3.046631   1.762370
    23  C    8.147100   2.445266   4.047825   4.318888   2.781846
    24  C    9.053197   2.470856   3.064341   2.893154   2.826752
    25  C    9.968948   3.788029   4.008509   4.218632   4.279457
    26  C    9.951135   3.142564   4.202902   3.405783   2.927166
    27  H    8.871764   2.575014   2.426635   2.163296   3.015625
    28  H    9.184563   3.320934   4.696206   4.903363   3.594544
    29  C    7.450706   3.203084   4.466713   5.212435   3.788317
    30  C    8.302503   2.825421   4.890583   4.741999   2.582842
    31  H    9.538318   3.952335   3.775130   4.429688   4.675001
    32  H   10.444271   4.275190   4.882673   5.060745   4.656584
    33  H   10.819791   4.570260   4.534393   4.542413   4.971477
    34  H    9.533802   2.849876   4.132837   3.000512   2.301790
    35  H   10.825037   4.055460   4.736302   3.813680   3.857258
    36  H   10.384969   3.667580   5.022349   4.376202   3.393313
    37  H    7.935978   4.107719   5.538284   6.188117   4.515996
    38  H    7.756934   3.722277   4.490263   5.483504   4.483231
    39  H    6.363886   2.944072   4.141740   5.001544   3.594875
    40  H    8.944801   3.893515   5.908642   5.821176   3.664915
    41  H    7.405015   2.693923   4.818971   4.720291   2.404816
    42  H    8.911221   2.941882   5.006826   4.476144   2.369815
    43  O    6.837734   3.343773   2.569243   4.152376   4.431857
    44  H    5.871412   3.173244   2.410336   4.064196   4.260479
    45  H    7.161956   2.576541   2.309178   3.602872   3.622613
                   21         22         23         24         25
    21  N    0.000000
    22  H    2.071059   0.000000
    23  C    1.487776   2.589394   0.000000
    24  C    1.479895   3.383024   2.500736   0.000000
    25  C    2.476182   4.521756   3.055432   1.527493   0.000000
    26  C    2.536955   4.115598   3.073165   1.529915   2.518582
    27  H    2.061199   3.557298   3.394312   1.093282   2.112412
    28  H    2.078213   3.631327   1.091185   2.486025   2.560493
    29  C    2.469692   2.838379   1.528294   3.711294   3.975079
    30  C    2.552027   2.879739   1.534039   3.414018   4.259005
    31  H    2.656942   4.519081   3.303198   2.170485   1.092991
    32  H    2.861955   4.900432   2.881884   2.188821   1.092391
    33  H    3.407000   5.412214   4.085825   2.153358   1.092523
    34  H    2.783521   3.829294   3.369286   2.185622   3.481139
    35  H    3.457101   5.084134   4.091400   2.157824   2.758254
    36  H    2.880009   4.479653   2.857447   2.175710   2.764542
    37  H    3.419850   3.682736   2.164379   4.565419   4.734719
    38  H    2.757096   3.457864   2.173049   3.800795   3.698866
    39  H    2.708186   2.243313   2.174289   4.140373   4.651963
    40  H    3.459965   3.846761   2.150852   4.234033   4.821305
    41  H    2.930121   2.419091   2.184297   4.034733   5.039374
    42  H    2.786857   3.311161   2.195996   3.235693   4.242396
    43  O    2.857136   3.276077   3.644325   3.613925   3.715402
    44  H    3.104801   2.863963   3.876319   4.086315   4.467854
    45  H    1.883094   2.681785   2.746587   2.705750   2.965832
                   26         27         28         29         30
    26  C    0.000000
    27  H    2.136788   0.000000
    28  H    2.920346   3.530880   0.000000
    29  C    4.553046   4.450194   2.130653   0.000000
    30  C    3.352123   4.271151   2.131488   2.507177   0.000000
    31  H    3.473215   2.485041   2.957177   3.823177   4.715562
    32  H    2.765323   3.046429   2.048074   3.782147   4.001221
    33  H    2.775589   2.391720   3.542840   5.066837   5.167222
    34  H    1.093016   2.520321   3.514486   4.840398   3.268259
    35  H    1.092892   2.432594   3.798517   5.535572   4.423943
    36  H    1.093640   3.055700   2.455439   4.353462   2.950390
    37  H    5.195797   5.404669   2.517484   1.093000   2.660387
    38  H    4.879628   4.464995   2.426141   1.091494   3.459050
    39  H    5.032370   4.687819   3.049507   1.094843   2.848110
    40  H    4.081064   5.186149   2.387976   2.772818   1.092536
    41  H    4.084997   4.716241   3.050889   2.712045   1.093365
    42  H    2.714773   4.050261   2.550878   3.474837   1.090896
    43  O    5.097094   3.546831   4.101504   3.291822   4.977829
    44  H    5.479965   3.962820   4.543358   3.412731   5.016084
    45  H    4.155436   2.799448   3.213110   2.699215   4.093521
                   31         32         33         34         35
    31  H    0.000000
    32  H    1.774638   0.000000
    33  H    1.771088   1.760938   0.000000
    34  H    4.326483   3.782352   3.776226   0.000000
    35  H    3.768535   3.089175   2.566020   1.767982   0.000000
    36  H    3.761919   2.561483   3.133778   1.775615   1.766964
    37  H    4.661243   4.323117   5.809681   5.477784   6.188312
    38  H    3.287591   3.542260   4.768111   5.340850   5.745364
    39  H    4.424357   4.652094   5.726560   5.126476   6.047137
    40  H    5.280354   4.330157   5.727487   4.113033   5.090486
    41  H    5.373571   4.922469   5.970592   3.777332   5.170709
    42  H    4.905120   4.041683   4.985903   2.458096   3.732496
    43  O    2.927033   4.307596   4.509902   5.446827   5.735861
    44  H    3.795659   5.052363   5.286649   5.650594   6.197582
    45  H    2.381812   3.530720   3.853282   4.516671   4.856436
                   36         37         38         39         40
    36  H    0.000000
    37  H    4.790025   0.000000
    38  H    4.744736   1.771890   0.000000
    39  H    4.994523   1.769279   1.772205   0.000000
    40  H    3.427685   2.483771   3.705181   3.284232   0.000000
    41  H    3.872929   2.876932   3.765191   2.621711   1.763318
    42  H    2.305819   3.709192   4.328796   3.813105   1.767616
    43  O    5.535005   4.316490   2.754622   3.142498   5.695197
    44  H    5.948715   4.418747   3.099572   2.945001   5.782043
    45  H    4.562848   3.775054   2.344384   2.708905   4.849639
                   41         42         43         44         45
    41  H    0.000000
    42  H    1.771587   0.000000
    43  O    5.057878   5.526412   0.000000
    44  H    4.883901   5.603545   0.971817   0.000000
    45  H    4.272599   4.581294   0.986723   1.528772   0.000000
 Stoichiometry    C11H28NO3PS
 Framework group  C1[X(C11H28NO3PS)]
 Deg. of freedom   129
 Full point group                 C1      NOp   1
 RotChk:  IX=0 Diff= 9.35D-16
 Largest Abelian subgroup         C1      NOp   1
 Largest concise Abelian subgroup C1      NOp   1
                         Standard orientation:                         
 ---------------------------------------------------------------------
 Center     Atomic      Atomic             Coordinates (Angstroms)
 Number     Number       Type             X           Y           Z
 ---------------------------------------------------------------------
      1         15           0       -2.367444   -0.617306    0.267780
      2         16           0       -1.333418   -1.180763   -1.473278
      3          8           0       -3.751729   -0.059310   -0.305749
      4          6           0        0.352124   -1.301489   -0.747302
      5          6           0       -3.824732    1.271367   -0.894090
      6          8           0       -1.588452    0.363825    1.094064
      7          6           0       -2.854605   -2.093163    1.145100
      8          1           0       -1.950956   -2.627617    1.445187
      9          1           0       -3.464388   -2.726756    0.501164
     10          1           0       -3.416675   -1.797879    2.033239
     11          1           0       -4.496337    1.171136   -1.744963
     12          1           0       -2.836873    1.560277   -1.261536
     13          6           0       -4.351029    2.253230    0.124959
     14          1           0       -4.456663    3.235344   -0.340888
     15          1           0       -3.666075    2.339841    0.970284
     16          1           0       -5.329728    1.936588    0.489814
     17          6           0        1.077520    0.041091   -0.818467
     18          1           0        0.270840   -1.671426    0.276015
     19          1           0        0.847715   -2.066693   -1.343800
     20          1           0        1.346911    0.227178   -1.866862
     21          7           0        2.230036    0.114117    0.085515
     22          1           0        0.383097    0.829381   -0.519879
     23          6           0        2.797669    1.488103    0.144117
     24          6           0        3.225305   -0.961527   -0.120682
     25          6           0        4.152033   -1.083173    1.087462
     26          6           0        4.029583   -0.854417   -1.417720
     27          1           0        2.648369   -1.889437   -0.158019
     28          1           0        3.837770    1.378043    0.455181
     29          6           0        2.076372    2.304506    1.215985
     30          6           0        2.795868    2.253735   -1.185198
     31          1           0        3.575734   -1.120327    2.015433
     32          1           0        4.860769   -0.254300    1.150549
     33          1           0        4.733285   -2.004842    1.008228
     34          1           0        3.379672   -0.765478   -2.292014
     35          1           0        4.642984   -1.750143   -1.543523
     36          1           0        4.699802    0.009415   -1.392234
     37          1           0        2.448188    3.332303    1.221765
     38          1           0        2.234513    1.875121    2.206934
     39          1           0        0.999136    2.336747    1.023103
     40          1           0        3.392587    3.161525   -1.069100
     41          1           0        1.784594    2.558011   -1.468375
     42          1           0        3.221628    1.670428   -2.002838
     43          8           0        0.766324   -0.440058    2.475841
     44          1           0       -0.096473   -0.166126    2.122329
     45          1           0        1.376884   -0.252579    1.723717
 ---------------------------------------------------------------------
 Rotational constants (GHZ):      0.5847326      0.2011349      0.1902510
 Leave Link  202 at Mon Jun 24 13:11:01 2019, MaxMem=  7680819200 cpu:         0.2
 (Enter /apps/gaussian/g09_d01/g09/l301.exe)
 Standard basis: 6-311++G(d,p) (5D, 7F)
 Ernie: Thresh=  0.10000D-02 Tol=  0.10000D-05 Strict=F.
 There are   603 symmetry adapted cartesian basis functions of A   symmetry.
 There are   586 symmetry adapted basis functions of A   symmetry.
   586 basis functions,   892 primitive gaussians,   603 cartesian basis functions
    78 alpha electrons       78 beta electrons
       nuclear repulsion energy      1738.5814579895 Hartrees.
 IExCor= 4336 DFT=T Ex+Corr=M062X ExCW=0 ScaHFX=  0.540000
 ScaDFX=  1.000000  1.000000  1.000000  1.000000 ScalE2=  1.000000  1.000000
 IRadAn=      5 IRanWt=     -1 IRanGd=            0 ICorTp=0 IEmpDi=  4
 NAtoms=   45 NActive=   45 NUniq=   45 SFac= 1.00D+00 NAtFMM=   60 NAOKFM=F Big=F
 Integral buffers will be    131072 words long.
 Raffenetti 2 integral format.
 Two-electron integral symmetry is turned on.
 Force inversion solution in PCM.
 ------------------------------------------------------------------------------
 Polarizable Continuum Model (PCM)
 =================================
 Model                : PCM (using non-symmetric T matrix).
 Atomic radii         : SMD-Coulomb.
 Polarization charges : Total charges.
 Charge compensation  : None.
 Solution method      : Matrix inversion.
 Cavity type          : VdW (van der Waals Surface) (Alpha=1.000).
 Cavity algorithm     : GePol (No added spheres)
                        Default sphere list used, NSphG=   45.
                        Lebedev-Laikov grids with approx.  5.0 points / Ang**2.
                        Smoothing algorithm: Karplus/York (Gamma=1.0000).
                        Polarization charges: spherical gaussians, with
                                              point-specific exponents (IZeta= 3).
                        Self-potential: point-specific (ISelfS= 7).
                        Self-field    : sphere-specific E.n sum rule (ISelfD= 2).
 1st derivatives      : Analytical E(r).r(x)/FMM algorithm (CHGder, D1EAlg=3).
                        Cavity 1st derivative terms included.
 2nd derivatives      : Analytical E(r).r(xy)/FMM algorithm (CHGder, D2EAlg=3).
                        Cavity 2nd derivative terms included.
 Solvent              : Water, Eps=  78.355300 Eps(inf)=   1.777849
 ------------------------------------------------------------------------------
 GePol: Number of generator spheres                  =      45
 GePol: Total number of spheres                      =      45
 GePol: Number of exposed spheres                    =      45 (100.00%)
 GePol: Number of points                             =    3006
 GePol: Average weight of points                     =       0.11
 GePol: Minimum weight of points                     =   0.58D-10
 GePol: Maximum weight of points                     =    0.21991
 GePol: Number of points with low weight             =     201
 GePol: Fraction of low-weight points (<1% of avg)   =       6.69%
 GePol: Cavity surface area                          =    345.282 Ang**2
 GePol: Cavity volume                                =    317.468 Ang**3
 ------------------------------------------------------------------------------
 Atomic radii for non-electrostatic terms: SMD-CDS.
 ------------------------------------------------------------------------------
 PCM non-electrostatic energy =         0.0127033277 Hartrees.
 Nuclear repulsion after PCM non-electrostatic terms =     1738.5941613172 Hartrees.
 Leave Link  301 at Mon Jun 24 13:11:01 2019, MaxMem=  7680819200 cpu:         1.9
 (Enter /apps/gaussian/g09_d01/g09/l302.exe)
 NPDir=0 NMtPBC=     1 NCelOv=     1 NCel=       1 NClECP=     1 NCelD=      1
         NCelK=      1 NCelE2=     1 NClLst=     1 CellRange=     0.0.
 One-electron integrals computed using PRISM.
 NBasis=   586 RedAO= T EigKep=  3.54D-06  NBF=   586
 NBsUse=   586 1.00D-06 EigRej= -1.00D+00 NBFU=   586
 Precomputing XC quadrature grid using
 IXCGrd= 4 IRadAn=           5 IRanWt=          -1 IRanGd=           0 AccXCQ= 0.00D+00.
 Generated NRdTot=       0 NPtTot=           0 NUsed=           0 NTot=          32
 NSgBfM=   601   601   601   601   602 MxSgAt=    45 MxSgA2=    45.
 Leave Link  302 at Mon Jun 24 13:11:02 2019, MaxMem=  7680819200 cpu:        21.0
 (Enter /apps/gaussian/g09_d01/g09/l303.exe)
 DipDrv:  MaxL=1.
 Leave Link  303 at Mon Jun 24 13:11:02 2019, MaxMem=  7680819200 cpu:         2.3
 (Enter /apps/gaussian/g09_d01/g09/l401.exe)
 Initial guess from the checkpoint file:  "Int3a_sp.chk"
 B after Tr=     0.000000    0.000000    0.000000
         Rot=    1.000000    0.000000    0.000000    0.000000 Ang=   0.00 deg.
 Guess basis will be translated and rotated to current coordinates.
 JPrj=2 DoOrth=T DoCkMO=T.
 Leave Link  401 at Mon Jun 24 13:11:03 2019, MaxMem=  7680819200 cpu:        24.7
 (Enter /apps/gaussian/g09_d01/g09/l502.exe)
 Closed shell SCF:
 Using DIIS extrapolation, IDIIS=  1040.
 Integral symmetry usage will be decided dynamically.
 IVT=     1128399 IEndB=     1128399 NGot=  7680819200 MDV=  7680071654
 LenX=  7680071654 LenY=  7679707442
 Requested convergence on RMS density matrix=1.00D-09 within 128 cycles.
 Requested convergence on MAX density matrix=1.00D-07.
 Requested convergence on             energy=1.00D-07.
 No special actions if energy rises.
 Fock matrices will be formed incrementally for  20 cycles.

 Cycle   1  Pass 1  IDiag  1:
 FoFJK:  IHMeth= 1 ICntrl=       0 DoSepK=F KAlg= 0 I1Cent=   0 FoldK=F
 IRaf= 850000000 NMat=   1 IRICut=       1 DoRegI=T DoRafI=F ISym2E= 0.
 FoFCou: FMM=F IPFlag=           0 FMFlag=      100000 FMFlg1=           0
         NFxFlg=           0 DoJE=F BraDBF=F KetDBF=F FulRan=T
         wScrn=  0.000000 ICntrl=       0 IOpCl=  0 I1Cent=           0 NGrid=           0
         NMat0=    1 NMatS0=      1 NMatT0=    0 NMatD0=    1 NMtDS0=    0 NMtDT0=    0
 Symmetry not used in FoFCou.
 Inv3:  Mode=1 IEnd=    27108108.
 Iteration    1 A*A^-1 deviation from unit magnitude is 6.66D-15 for   2999.
 Iteration    1 A*A^-1 deviation from orthogonality  is 2.71D-15 for   2106   1265.
 Iteration    1 A^-1*A deviation from unit magnitude is 6.66D-15 for   2999.
 Iteration    1 A^-1*A deviation from orthogonality  is 2.93D-11 for   2439   2414.
 E= -1455.96203085074    
 DIIS: error= 1.35D-10 at cycle   1 NSaved=   1.
 NSaved= 1 IEnMin= 1 EnMin= -1455.96203085074     IErMin= 1 ErrMin= 1.35D-10
 ErrMax= 1.35D-10  0.00D+00 EMaxC= 1.00D-01 BMatC= 2.90D-17 BMatP= 2.90D-17
 IDIUse=1 WtCom= 1.00D+00 WtEn= 0.00D+00
 Coeff-Com:  0.100D+01
 Coeff:      0.100D+01
 Gap=     0.277 Goal=   None    Shift=    0.000
 RMSDP=2.03D-10 MaxDP=2.13D-08              OVMax= 2.11D-09

 Error on total polarization charges =  0.06740
 SCF Done:  E(RM062X) =  -1455.96203085     A.U. after    1 cycles
            NFock=  1  Conv=0.20D-09     -V/T= 2.0027
 KE= 1.452082226432D+03 PE=-6.906750039618D+03 EE= 2.260111621018D+03
 SMD-CDS (non-electrostatic) energy       (kcal/mol) =       7.97
 (included in total energy above)
 Leave Link  502 at Mon Jun 24 13:11:46 2019, MaxMem=  7680819200 cpu:       953.9
 (Enter /apps/gaussian/g09_d01/g09/l801.exe)
 DoSCS=F DFT=T ScalE2(SS,OS)=  1.000000  1.000000
 Range of M.O.s used for correlation:     1   586
 NBasis=   586 NAE=    78 NBE=    78 NFC=     0 NFV=     0
 NROrb=    586 NOA=    78 NOB=    78 NVA=   508 NVB=   508

 **** Warning!!: The largest alpha MO coefficient is  0.98255770D+02

 Leave Link  801 at Mon Jun 24 13:11:47 2019, MaxMem=  7680819200 cpu:         0.5
 (Enter /apps/gaussian/g09_d01/g09/l1101.exe)
 Using compressed storage, NAtomX=    45.
 Will process     46 centers per pass.
 Leave Link 1101 at Mon Jun 24 13:11:49 2019, MaxMem=  7680819200 cpu:        51.8
 (Enter /apps/gaussian/g09_d01/g09/l1102.exe)
 Symmetrizing basis deriv contribution to polar:
 IMax=3 JMax=2 DiffMx= 0.00D+00
 Leave Link 1102 at Mon Jun 24 13:11:50 2019, MaxMem=  7680819200 cpu:         2.8
 (Enter /apps/gaussian/g09_d01/g09/l1110.exe)
 Forming Gx(P) for the SCF density, NAtomX=    45.
 Integral derivatives from FoFJK, PRISM(SPDF).
 Do as many integral derivatives as possible in FoFJK.
 G2DrvN: MDV=    7680818736.
 G2DrvN: will do    46 centers at a time, making    1 passes.
 Calling FoFCou, ICntrl=  3107 FMM=F I1Cent=   0 AccDes= 0.00D+00.
 FoFJK:  IHMeth= 1 ICntrl=    3107 DoSepK=F KAlg= 0 I1Cent=   0 FoldK=F
 IRaf=         0 NMat=   1 IRICut=       1 DoRegI=T DoRafI=F ISym2E= 0.
 FoFCou: FMM=F IPFlag=           0 FMFlag=      100000 FMFlg1=           0
         NFxFlg=           0 DoJE=F BraDBF=F KetDBF=F FulRan=T
         wScrn=  0.000000 ICntrl=    3107 IOpCl=  0 I1Cent=           0 NGrid=           0
         NMat0=    1 NMatS0=      1 NMatT0=    0 NMatD0=    1 NMtDS0=    0 NMtDT0=    0
 Symmetry not used in FoFCou.
 NEqPCM:  Using equilibrium solvation (IEInf=0, Eps=  78.3553, EpsInf=   1.7778)
 G2PCM: DoFxE=T DoFxN=T DoGrad=T DoDP/DQ/DG/TGxP=FFFF NFrqRd=   0 IEInf=0 SqF1=F DoCFld=F IF1Alg=4.
 GePol: Maximum number of non-zero 1st derivatives   =     338
 End of G2Drv F.D. properties file   721 does not exist.
 End of G2Drv F.D. properties file   722 does not exist.
 End of G2Drv F.D. properties file   788 does not exist.
 Leave Link 1110 at Mon Jun 24 13:34:58 2019, MaxMem=  7680819200 cpu:     33317.9
 (Enter /apps/gaussian/g09_d01/g09/l1002.exe)
 Minotr:  Closed shell wavefunction.
          IDoAtm=111111111111111111111111111111111111111111111
 NEqPCM:  Using equilibrium solvation (IEInf=0, Eps=  78.3553, EpsInf=   1.7778)
          Direct CPHF calculation.
          Differentiating once with respect to electric field.
                with respect to dipole field.
          Differentiating once with respect to nuclear coordinates.
          Requested convergence is 1.0D-08 RMS, and 1.0D-07 maximum.
          Secondary convergence is 1.0D-12 RMS, and 1.0D-12 maximum.
          NewPWx=T KeepS1=F KeepF1=F KeepIn=T MapXYZ=F SortEE=F KeepMc=T.
          MDV=    7680818160 using IRadAn=       1.
 Generate precomputed XC quadrature information.
          Solving linear equations simultaneously, MaxMat=       0.
 FoFJK:  IHMeth= 1 ICntrl=       0 DoSepK=F KAlg= 0 I1Cent=   0 FoldK=F
 IRaf= 840000000 NMat= 138 IRICut=     345 DoRegI=T DoRafI=T ISym2E= 2.
 FoFCou: FMM=F IPFlag=           0 FMFlag=      100000 FMFlg1=           0
         NFxFlg=           0 DoJE=F BraDBF=F KetDBF=F FulRan=T
         wScrn=  0.000000 ICntrl=       0 IOpCl=  0 I1Cent=           0 NGrid=           0
         NMat0=  138 NMatS0=    138 NMatT0=    0 NMatD0=  138 NMtDS0=    0 NMtDT0=    0
 Integrals replicated using symmetry in FoFCou.
          There are   138 degrees of freedom in the 1st order CPHF.  IDoFFX=6 NUNeed=     3.
    135 vectors produced by pass  0 Test12= 3.96D-14 1.00D-09 XBig12= 9.61D+01 1.11D+00.
 AX will form   135 AO Fock derivatives at one time.
    135 vectors produced by pass  1 Test12= 3.96D-14 1.00D-09 XBig12= 5.85D+00 2.01D-01.
    135 vectors produced by pass  2 Test12= 3.96D-14 1.00D-09 XBig12= 1.37D-01 3.13D-02.
    135 vectors produced by pass  3 Test12= 3.96D-14 1.00D-09 XBig12= 1.12D-03 2.35D-03.
    135 vectors produced by pass  4 Test12= 3.96D-14 1.00D-09 XBig12= 6.37D-06 2.07D-04.
    135 vectors produced by pass  5 Test12= 3.96D-14 1.00D-09 XBig12= 2.64D-08 1.11D-05.
     74 vectors produced by pass  6 Test12= 3.96D-14 1.00D-09 XBig12= 9.60D-11 6.23D-07.
     11 vectors produced by pass  7 Test12= 3.96D-14 1.00D-09 XBig12= 3.21D-13 4.15D-08.
      3 vectors produced by pass  8 Test12= 3.96D-14 1.00D-09 XBig12= 1.79D-15 3.57D-09.
      3 vectors produced by pass  9 Test12= 3.96D-14 1.00D-09 XBig12= 5.32D-16 4.19D-09.
 InvSVY:  IOpt=1 It=  1 EMax= 1.42D-14
 Solved reduced A of dimension   901 with   138 vectors.
 FullF1:  Do perturbations    1 to     3.
 Isotropic polarizability for W=    0.000000      273.61 Bohr**3.
 End of Minotr F.D. properties file   721 does not exist.
 End of Minotr F.D. properties file   722 does not exist.
 End of Minotr F.D. properties file   788 does not exist.
 Leave Link 1002 at Mon Jun 24 14:20:55 2019, MaxMem=  7680819200 cpu:     66115.8
 (Enter /apps/gaussian/g09_d01/g09/l601.exe)
 Copying SCF densities to generalized density rwf, IOpCl= 0 IROHF=0.

 **********************************************************************

            Population analysis using the SCF density.

 **********************************************************************

 Orbital symmetries:
       Occupied  (A) (A) (A) (A) (A) (A) (A) (A) (A) (A) (A) (A)
                 (A) (A) (A) (A) (A) (A) (A) (A) (A) (A) (A) (A)
                 (A) (A) (A) (A) (A) (A) (A) (A) (A) (A) (A) (A)
                 (A) (A) (A) (A) (A) (A) (A) (A) (A) (A) (A) (A)
                 (A) (A) (A) (A) (A) (A) (A) (A) (A) (A) (A) (A)
                 (A) (A) (A) (A) (A) (A) (A) (A) (A) (A) (A) (A)
                 (A) (A) (A) (A) (A) (A)
       Virtual   (A) (A) (A) (A) (A) (A) (A) (A) (A) (A) (A) (A)
                 (A) (A) (A) (A) (A) (A) (A) (A) (A) (A) (A) (A)
                 (A) (A) (A) (A) (A) (A) (A) (A) (A) (A) (A) (A)
                 (A) (A) (A) (A) (A) (A) (A) (A) (A) (A) (A) (A)
                 (A) (A) (A) (A) (A) (A) (A) (A) (A) (A) (A) (A)
                 (A) (A) (A) (A) (A) (A) (A) (A) (A) (A) (A) (A)
                 (A) (A) (A) (A) (A) (A) (A) (A) (A) (A) (A) (A)
                 (A) (A) (A) (A) (A) (A) (A) (A) (A) (A) (A) (A)
                 (A) (A) (A) (A) (A) (A) (A) (A) (A) (A) (A) (A)
                 (A) (A) (A) (A) (A) (A) (A) (A) (A) (A) (A) (A)
                 (A) (A) (A) (A) (A) (A) (A) (A) (A) (A) (A) (A)
                 (A) (A) (A) (A) (A) (A) (A) (A) (A) (A) (A) (A)
                 (A) (A) (A) (A) (A) (A) (A) (A) (A) (A) (A) (A)
                 (A) (A) (A) (A) (A) (A) (A) (A) (A) (A) (A) (A)
                 (A) (A) (A) (A) (A) (A) (A) (A) (A) (A) (A) (A)
                 (A) (A) (A) (A) (A) (A) (A) (A) (A) (A) (A) (A)
                 (A) (A) (A) (A) (A) (A) (A) (A) (A) (A) (A) (A)
                 (A) (A) (A) (A) (A) (A) (A) (A) (A) (A) (A) (A)
                 (A) (A) (A) (A) (A) (A) (A) (A) (A) (A) (A) (A)
                 (A) (A) (A) (A) (A) (A) (A) (A) (A) (A) (A) (A)
                 (A) (A) (A) (A) (A) (A) (A) (A) (A) (A) (A) (A)
                 (A) (A) (A) (A) (A) (A) (A) (A) (A) (A) (A) (A)
                 (A) (A) (A) (A) (A) (A) (A) (A) (A) (A) (A) (A)
                 (A) (A) (A) (A) (A) (A) (A) (A) (A) (A) (A) (A)
                 (A) (A) (A) (A) (A) (A) (A) (A) (A) (A) (A) (A)
                 (A) (A) (A) (A) (A) (A) (A) (A) (A) (A) (A) (A)
                 (A) (A) (A) (A) (A) (A) (A) (A) (A) (A) (A) (A)
                 (A) (A) (A) (A) (A) (A) (A) (A) (A) (A) (A) (A)
                 (A) (A) (A) (A) (A) (A) (A) (A) (A) (A) (A) (A)
                 (A) (A) (A) (A) (A) (A) (A) (A) (A) (A) (A) (A)
                 (A) (A) (A) (A) (A) (A) (A) (A) (A) (A) (A) (A)
                 (A) (A) (A) (A) (A) (A) (A) (A) (A) (A) (A) (A)
                 (A) (A) (A) (A) (A) (A) (A) (A) (A) (A) (A) (A)
                 (A) (A) (A) (A) (A) (A) (A) (A) (A) (A) (A) (A)
                 (A) (A) (A) (A) (A) (A) (A) (A) (A) (A) (A) (A)
                 (A) (A) (A) (A) (A) (A) (A) (A) (A) (A) (A) (A)
                 (A) (A) (A) (A) (A) (A) (A) (A) (A) (A) (A) (A)
                 (A) (A) (A) (A) (A) (A) (A) (A) (A) (A) (A) (A)
                 (A) (A) (A) (A) (A) (A) (A) (A) (A) (A) (A) (A)
                 (A) (A) (A) (A) (A) (A) (A) (A) (A) (A) (A) (A)
                 (A) (A) (A) (A) (A) (A) (A) (A) (A) (A) (A) (A)
                 (A) (A) (A) (A) (A) (A) (A) (A) (A) (A) (A) (A)
                 (A) (A) (A) (A)
 The electronic state is 1-A.
 Alpha  occ. eigenvalues --  -89.90163 -78.14427 -19.66302 -19.60271 -19.59451
 Alpha  occ. eigenvalues --  -14.73788 -10.59765 -10.57177 -10.55992 -10.55918
 Alpha  occ. eigenvalues --  -10.55867 -10.54376 -10.52314 -10.51408 -10.51341
 Alpha  occ. eigenvalues --  -10.51274 -10.51227  -8.26814  -6.95796  -6.18912
 Alpha  occ. eigenvalues --   -6.18712  -6.18340  -5.07624  -5.07519  -5.07372
 Alpha  occ. eigenvalues --   -1.19556  -1.11149  -1.10016  -1.03107  -0.90443
 Alpha  occ. eigenvalues --   -0.87988  -0.87268  -0.84263  -0.82582  -0.77995
 Alpha  occ. eigenvalues --   -0.76804  -0.76327  -0.72816  -0.70185  -0.67824
 Alpha  occ. eigenvalues --   -0.63870  -0.61028  -0.58229  -0.57453  -0.56314
 Alpha  occ. eigenvalues --   -0.56052  -0.55097  -0.53974  -0.52671  -0.50312
 Alpha  occ. eigenvalues --   -0.49970  -0.49324  -0.49093  -0.48578  -0.47750
 Alpha  occ. eigenvalues --   -0.47141  -0.46128  -0.45785  -0.45108  -0.44959
 Alpha  occ. eigenvalues --   -0.44555  -0.43960  -0.43688  -0.43437  -0.42211
 Alpha  occ. eigenvalues --   -0.41709  -0.41102  -0.40845  -0.40145  -0.39438
 Alpha  occ. eigenvalues --   -0.39102  -0.37900  -0.37545  -0.37199  -0.36984
 Alpha  occ. eigenvalues --   -0.34962  -0.31203  -0.27835
 Alpha virt. eigenvalues --   -0.00119   0.00800   0.00913   0.01273   0.01817
 Alpha virt. eigenvalues --    0.02206   0.02458   0.03003   0.03162   0.03659
 Alpha virt. eigenvalues --    0.03969   0.04373   0.04488   0.04967   0.05019
 Alpha virt. eigenvalues --    0.05546   0.06021   0.06428   0.06696   0.06788
 Alpha virt. eigenvalues --    0.07206   0.07406   0.07705   0.08069   0.08184
 Alpha virt. eigenvalues --    0.09021   0.09396   0.09520   0.10219   0.10298
 Alpha virt. eigenvalues --    0.10474   0.10522   0.10948   0.11169   0.11709
 Alpha virt. eigenvalues --    0.11842   0.11988   0.12239   0.12778   0.13084
 Alpha virt. eigenvalues --    0.13451   0.13674   0.13952   0.14240   0.14796
 Alpha virt. eigenvalues --    0.14920   0.14981   0.15102   0.15264   0.15435
 Alpha virt. eigenvalues --    0.15715   0.15993   0.16390   0.16745   0.17049
 Alpha virt. eigenvalues --    0.17197   0.17376   0.17534   0.17769   0.17906
 Alpha virt. eigenvalues --    0.18086   0.18321   0.18663   0.18756   0.18863
 Alpha virt. eigenvalues --    0.19123   0.19327   0.19548   0.19662   0.20035
 Alpha virt. eigenvalues --    0.20100   0.20504   0.20871   0.21309   0.21543
 Alpha virt. eigenvalues --    0.22004   0.22281   0.22432   0.22483   0.22950
 Alpha virt. eigenvalues --    0.23240   0.23510   0.23943   0.24378   0.24450
 Alpha virt. eigenvalues --    0.24799   0.24860   0.25361   0.25562   0.26193
 Alpha virt. eigenvalues --    0.26582   0.26667   0.27296   0.27544   0.28258
 Alpha virt. eigenvalues --    0.28412   0.29543   0.29708   0.29831   0.30043
 Alpha virt. eigenvalues --    0.30409   0.30540   0.31452   0.31597   0.31773
 Alpha virt. eigenvalues --    0.32010   0.32384   0.32846   0.32994   0.33688
 Alpha virt. eigenvalues --    0.33950   0.34190   0.34510   0.35081   0.35597
 Alpha virt. eigenvalues --    0.36220   0.36351   0.36653   0.36888   0.37179
 Alpha virt. eigenvalues --    0.37674   0.37837   0.38143   0.38538   0.38651
 Alpha virt. eigenvalues --    0.39384   0.39811   0.40008   0.40297   0.41449
 Alpha virt. eigenvalues --    0.41586   0.41982   0.42444   0.42669   0.43507
 Alpha virt. eigenvalues --    0.44628   0.45134   0.45452   0.45898   0.46528
 Alpha virt. eigenvalues --    0.47066   0.47877   0.48627   0.49797   0.50563
 Alpha virt. eigenvalues --    0.51072   0.51600   0.52498   0.53717   0.53931
 Alpha virt. eigenvalues --    0.54675   0.55675   0.56521   0.57726   0.58435
 Alpha virt. eigenvalues --    0.58985   0.59401   0.60989   0.62106   0.62244
 Alpha virt. eigenvalues --    0.63008   0.64025   0.64209   0.64562   0.65167
 Alpha virt. eigenvalues --    0.65389   0.66126   0.66775   0.67508   0.67945
 Alpha virt. eigenvalues --    0.69343   0.69659   0.70934   0.71275   0.72405
 Alpha virt. eigenvalues --    0.72639   0.72892   0.73221   0.73572   0.74443
 Alpha virt. eigenvalues --    0.74632   0.74964   0.75143   0.75884   0.76319
 Alpha virt. eigenvalues --    0.77058   0.77269   0.77748   0.78480   0.78881
 Alpha virt. eigenvalues --    0.79536   0.79604   0.80075   0.80763   0.81306
 Alpha virt. eigenvalues --    0.81898   0.82969   0.83488   0.84115   0.84572
 Alpha virt. eigenvalues --    0.84817   0.85348   0.85678   0.86187   0.86681
 Alpha virt. eigenvalues --    0.87743   0.89152   0.90270   0.90689   0.91149
 Alpha virt. eigenvalues --    0.92496   0.93174   0.95077   0.96012   0.97561
 Alpha virt. eigenvalues --    0.98432   0.99590   1.00385   1.01108   1.01960
 Alpha virt. eigenvalues --    1.03937   1.04634   1.05305   1.06232   1.07517
 Alpha virt. eigenvalues --    1.08562   1.09543   1.11515   1.14052   1.14328
 Alpha virt. eigenvalues --    1.15846   1.16789   1.17047   1.20374   1.20717
 Alpha virt. eigenvalues --    1.21507   1.22589   1.23733   1.24565   1.26100
 Alpha virt. eigenvalues --    1.26116   1.26747   1.27158   1.28508   1.29194
 Alpha virt. eigenvalues --    1.30494   1.31226   1.32475   1.33844   1.34939
 Alpha virt. eigenvalues --    1.36290   1.37434   1.37618   1.38796   1.39750
 Alpha virt. eigenvalues --    1.42034   1.47096   1.48963   1.49344   1.50716
 Alpha virt. eigenvalues --    1.50961   1.52325   1.53147   1.53282   1.54232
 Alpha virt. eigenvalues --    1.54816   1.55560   1.55744   1.58022   1.59736
 Alpha virt. eigenvalues --    1.60125   1.60994   1.61370   1.61771   1.62417
 Alpha virt. eigenvalues --    1.62971   1.63586   1.63974   1.64023   1.65156
 Alpha virt. eigenvalues --    1.65281   1.65702   1.66057   1.66872   1.67261
 Alpha virt. eigenvalues --    1.67763   1.69125   1.69540   1.69953   1.70662
 Alpha virt. eigenvalues --    1.70924   1.71510   1.72916   1.73173   1.73561
 Alpha virt. eigenvalues --    1.73775   1.74310   1.75207   1.75752   1.76343
 Alpha virt. eigenvalues --    1.76745   1.77512   1.77779   1.78983   1.81055
 Alpha virt. eigenvalues --    1.82107   1.82479   1.83208   1.84523   1.85152
 Alpha virt. eigenvalues --    1.85866   1.86931   1.87406   1.87649   1.88161
 Alpha virt. eigenvalues --    1.88979   1.90415   1.90853   1.91676   1.92211
 Alpha virt. eigenvalues --    1.92842   1.93462   1.94264   1.94696   1.96668
 Alpha virt. eigenvalues --    1.97766   1.99812   2.00785   2.02103   2.02673
 Alpha virt. eigenvalues --    2.03941   2.05636   2.06076   2.09755   2.10476
 Alpha virt. eigenvalues --    2.11019   2.12242   2.14567   2.15344   2.15890
 Alpha virt. eigenvalues --    2.17131   2.18800   2.20151   2.21878   2.22236
 Alpha virt. eigenvalues --    2.23401   2.24110   2.24595   2.25646   2.27252
 Alpha virt. eigenvalues --    2.27822   2.30513   2.32477   2.32965   2.33550
 Alpha virt. eigenvalues --    2.35799   2.36575   2.38576   2.41320   2.41885
 Alpha virt. eigenvalues --    2.42756   2.45222   2.46695   2.49400   2.53001
 Alpha virt. eigenvalues --    2.53401   2.54068   2.54541   2.55032   2.55127
 Alpha virt. eigenvalues --    2.56339   2.56832   2.57055   2.58460   2.58807
 Alpha virt. eigenvalues --    2.59337   2.60299   2.61059   2.61103   2.61429
 Alpha virt. eigenvalues --    2.61935   2.62967   2.64154   2.64726   2.65260
 Alpha virt. eigenvalues --    2.66002   2.66666   2.67434   2.68015   2.68482
 Alpha virt. eigenvalues --    2.69071   2.70883   2.71499   2.72297   2.72720
 Alpha virt. eigenvalues --    2.73475   2.75093   2.75927   2.77290   2.78127
 Alpha virt. eigenvalues --    2.79023   2.80411   2.82035   2.82643   2.83393
 Alpha virt. eigenvalues --    2.85164   2.85972   2.87977   2.88647   2.91067
 Alpha virt. eigenvalues --    2.93115   2.93489   2.94753   2.95340   2.97777
 Alpha virt. eigenvalues --    2.98015   2.99082   2.99517   3.01119   3.03209
 Alpha virt. eigenvalues --    3.04747   3.06412   3.07163   3.08107   3.08706
 Alpha virt. eigenvalues --    3.10503   3.13694   3.14771   3.15747   3.18292
 Alpha virt. eigenvalues --    3.20243   3.21093   3.24465   3.27603   3.28855
 Alpha virt. eigenvalues --    3.29980   3.31499   3.33608   3.39490   3.43729
 Alpha virt. eigenvalues --    3.44333   3.46434   3.49210   3.64388   3.68432
 Alpha virt. eigenvalues --    3.73238   3.77251   3.79812   3.80499   3.81455
 Alpha virt. eigenvalues --    3.83161   3.84514   3.85638   3.86539   3.86870
 Alpha virt. eigenvalues --    3.87259   3.87696   3.87935   3.90267   3.91242
 Alpha virt. eigenvalues --    3.91882   3.92252   3.93845   4.05067   4.09036
 Alpha virt. eigenvalues --    4.15553   4.18491   4.20801   4.28062   4.34063
 Alpha virt. eigenvalues --    4.35069   4.51049   4.94752   4.97393   5.19479
 Alpha virt. eigenvalues --    5.21021   5.22087   5.26786   5.33081   5.43520
 Alpha virt. eigenvalues --    5.57460   5.62574   5.85757   7.42480   8.15972
 Alpha virt. eigenvalues --   14.17572  14.19670  14.28547  17.57728  17.69207
 Alpha virt. eigenvalues --   17.71495  23.92276  23.94242  23.94639  23.97566
 Alpha virt. eigenvalues --   24.02848  24.04767  24.07261  24.08942  24.09271
 Alpha virt. eigenvalues --   24.10889  24.14673  35.68201  50.02500  50.06166
 Alpha virt. eigenvalues --   50.10502 163.72220 189.48961
          Condensed to atoms (all electrons):
               1          2          3          4          5          6
     1  P   18.972226  -0.706111  -0.527654   0.481000  -0.096761  -0.078438
[...]
 0100,-0.00000082,0.00000033,0.00000017,0.00000355,-0.00000131,-0.00000
 139,-0.00000091,-0.00000007,0.00000156,-0.00000053,0.00000082,-0.00000
 078,-0.00000073,0.00000033,0.00000030,-0.00000062,-0.00000017,0.000000
 66,0.00000025,-0.00000078,-0.00000022,-0.00000033,-0.00000005,-0.00033
 684,0.00030204,0.00047369,0.00003386,0.00006870,0.00000030,-0.00001065
 ,-0.00001797,0.00000564,-0.00030114,-0.00032298,-0.00022071,0.00010487
 ,-0.00002722,0.00012821,0.00002449,-0.00018865,0.00010416,-0.00110939,
 -0.00117318,-0.00060587,0.00008984,-0.00014230,-0.00001970,0.00001451,
 0.00000732,0.00000743,-0.00076759,0.00101629,0.00003718,-0.00000603,0.
 00002094,-0.00000555,0.00008850,-0.00043258,0.00023057,0.00104962,-0.0
 0039868,0.00026683,-0.09207916,0.05591981,0.08567386,-0.00000149,-0.00
 000152,0.00000278,-0.00001101,-0.00001133,-0.00000503,-0.00000825,-0.0
 0000681,-0.00000211,-0.00012902,-0.00007550,-0.00008068,0.00004844,0.0
 0023121,-0.00010582,-0.00049096,0.00110591,-0.00008629,0.00000179,0.00
 025813,-0.00009523,0.00020385,0.00021741,0.00013980,0.00022354,-0.0000
 8438,-0.00031314,0.00781886,-0.00797673,-0.01441977,-0.01051459,0.0143
 4454,0.02278408,0.09604012,0.00001590,-0.00000231,0.00000524,0.0000191
 6,0.00001596,0.00000692,-0.00000230,-0.00000049,0.00000016,0.00002152,
 0.00001634,0.00003954,0.00000082,-0.00000002,-0.00000035,-0.00000136,0
 .00000112,0.00000448,0.00000023,-0.00000315,-0.00000095,-0.00000006,0.
 00000076,-0.00000105,-0.00000069,0.00000021,-0.00000041,-0.00000135,0.
 00000041,-0.00000040,-0.00000028,-0.00000020,0.00000008,0.00000032,0.0
 0000020,-0.00000041,0.00000001,-0.00000073,0.00000023,-0.00000021,0.00
 000011,-0.00000023,-0.00000008,0.00000013,0.00000049,0.00000020,0.0000
 0018,0.00000011,-0.00075312,-0.00014802,-0.00042074,-0.00001345,-0.000
 01324,0.00002702,-0.00000793,-0.00000162,0.00000023,-0.00061201,-0.000
 56925,0.00029876,0.00035229,0.00151367,-0.00157175,-0.00004451,-0.0000
 7138,0.00015406,-0.00896710,0.01007830,0.01429032,0.00006058,-0.000052
 99,0.00014206,0.00007336,0.00000004,-0.00001405,0.00130080,-0.00213363
 ,0.00020665,-0.00000540,0.00006107,-0.00003286,0.00018686,0.00040797,-
 0.00091197,0.00030277,-0.00178971,0.00302268,0.05670615,-0.11416853,-0
 .10598169,-0.00001599,0.00000882,-0.00003580,-0.00001386,-0.00001093,-
 0.00000156,-0.00001428,0.00000251,-0.00000835,0.00010226,-0.00041053,-
 0.00016878,-0.00002424,-0.00021050,0.00009213,0.00060506,-0.00099184,0
 .00005619,0.00015445,0.00029883,-0.00003105,-0.00042514,0.00055784,0.0
 0094821,0.00002786,-0.00008249,-0.00005920,0.01165846,-0.01187104,-0.0
 1860467,0.00193712,-0.00455709,-0.00521308,-0.06261228,0.12410384,0.00
 000321,-0.00000428,-0.00001848,0.00001521,0.00000910,0.00000571,-0.000
 00266,0.00000301,0.00000309,-0.00000600,-0.00002562,0.00017105,-0.0000
 0037,-0.00000289,0.00000038,-0.00000330,0.00000253,0.00001439,-0.00000
 041,0.00000299,0.00000497,-0.00000044,-0.00000024,-0.00000012,0.000000
 74,0.00000047,-0.00000035,0.00000033,-0.00000080,0.00000032,0.00000032
 ,0.00000135,0.00000037,-0.00000064,-0.00000043,-0.00000020,-0.00000014
 ,0.00000089,-0.00000076,-0.00000002,-0.00000030,0.00000024,-0.00000016
 ,-0.00000016,0.,0.00000024,0.00000006,-0.00000004,0.00007395,0.0001260
 5,0.00024959,-0.00003621,-0.00004532,-0.00001535,-0.00001574,0.0000130
 6,-0.00000973,0.00041346,0.00014023,0.00021480,-0.00065815,-0.00058038
 ,0.00142073,-0.00009666,-0.00003768,0.00004959,0.01099966,-0.01620987,
 -0.01829437,0.00020074,0.00041662,-0.00029371,-0.00006006,-0.00002626,
 0.00000532,0.00092647,-0.00056572,-0.00008030,-0.00011188,0.00003275,0
 .00007914,-0.00032485,-0.00022846,0.00081000,-0.00129617,0.00419034,-0
 .00430164,0.08508579,-0.10317609,-0.20752727,0.00001187,-0.00000836,0.
 00002477,0.00002275,0.00001793,0.00000296,-0.00000259,0.00001519,0.000
 00568,0.00021374,0.00000759,0.00017663,-0.00008757,-0.00044651,0.00026
 305,-0.00064415,-0.00025483,-0.00009315,-0.00017270,0.00012576,0.00033
 852,0.00114480,-0.00067954,-0.00130498,0.00017660,0.00000992,0.0000261
 2,0.00101701,-0.00135679,-0.00297469,-0.00310337,0.00482968,0.00698922
 ,-0.09367734,0.11372190,0.22405607,0.00302464,0.00568542,0.00472876,0.
 00045608,-0.00031500,-0.00067980,-0.00181100,-0.00029253,-0.00141507,0
 .00004317,-0.00079883,-0.00004119,0.00017081,-0.00065885,0.00026121,-0
 .01176454,-0.00002931,-0.01012563,-0.00024886,-0.00046322,-0.00041316,
 -0.00006769,-0.00000235,-0.00002242,-0.00006954,-0.00017271,0.00011021
 ,0.00002541,0.00004151,-0.00002225,-0.00002698,0.00008258,-0.00004485,
 0.00001046,0.00001408,0.00002853,0.00002429,0.00007157,-0.00000992,-0.
 00002897,0.00003416,0.00001449,-0.00001044,-0.00001624,-0.00001247,-0.
 00001502,0.00000133,0.00001048,-0.00337269,-0.00049446,-0.00124536,0.0
 0010630,0.00033534,-0.00044628,0.00008941,0.00015835,-0.00016015,0.000
 89441,0.00010426,0.00126540,-0.00661341,-0.00492370,0.01617563,0.00028
 648,-0.00016926,0.00021064,0.00132394,0.00329924,0.00145264,0.00237129
 ,-0.00309709,0.00001163,-0.00002603,0.00036125,-0.00032689,-0.00066171
 ,0.00098325,0.00004853,-0.00004426,0.00040486,0.00002333,-0.00020032,-
 0.00020794,-0.00005647,-0.00066862,-0.00069885,-0.00064468,-0.00052948
 ,-0.00085416,-0.00035390,-0.00024604,-0.00012264,0.00026063,-0.0000650
 8,-0.00006545,0.00004987,-0.00025005,0.00008914,-0.00007925,0.00008999
 ,-0.00005009,0.00001075,-0.00033827,0.00007019,0.00038024,0.00001323,-
 0.00006926,-0.00003157,0.00009670,-0.00036524,0.00010958,0.00004459,-0
 .00072447,0.00065802,0.00012200,0.00004786,-0.00001627,0.00000151,-0.0
 0035283,0.00030406,0.00007754,-0.00003189,0.00006863,0.00001738,0.0000
 8501,0.00001940,0.58220535,0.00013449,-0.00168433,-0.00096116,-0.00003
 125,0.00022853,0.00008690,0.00039582,0.00018456,0.00047076,-0.00006704
 ,-0.00092322,-0.00017631,-0.00003950,0.00012801,-0.00008525,0.00347647
 ,0.00197650,0.00248383,0.00001920,0.00017999,0.00012402,0.00005678,0.0
 0002727,-0.00000605,-0.00000015,0.00004846,-0.00003064,0.00000669,-0.0
 0000060,0.00003277,-0.00000140,-0.00001648,0.00000448,-0.00000154,-0.0
 0000989,-0.00000958,-0.00001488,-0.00002048,0.00000400,0.00000296,-0.0
 0000735,-0.00000540,0.00000264,-0.00000066,0.00000459,0.00000481,0.000
 00202,0.00000016,-0.00138570,-0.00017263,-0.00099184,-0.00008854,0.000
 45123,-0.00117450,-0.00006171,0.00012015,-0.00034244,0.00032376,0.0000
 2291,0.00031648,-0.00432513,0.00219168,0.00647941,0.00013908,-0.000039
 61,-0.00008446,0.00075704,0.00117594,-0.00014970,0.00027812,-0.0013579
 4,0.00116150,-0.00009921,0.00013700,0.00025651,-0.00048415,0.00055484,
 -0.00006160,-0.00014493,0.00011640,0.00012686,-0.00008680,-0.00005738,
 0.00001227,-0.00117556,-0.00146421,-0.00101593,-0.00009788,-0.00006233
 ,0.00000090,0.00002171,0.00002495,-0.00011854,0.00002050,-0.00001500,-
 0.00005229,-0.00007198,0.00003979,-0.00007856,0.00006206,-0.00001509,-
 0.00001994,-0.00018565,0.00001391,0.00021782,-0.00000859,-0.00003386,0
 .00000397,-0.00032326,-0.00024808,0.00073852,-0.00008188,-0.00155410,0
 .00149077,-0.00027659,-0.00000684,-0.00032780,0.00000223,-0.00008454,0
 .00004161,0.00002863,-0.00002189,0.00001678,0.00000279,0.00001381,0.00
 006046,-0.06472850,0.09100889,0.00199681,0.00192708,0.00108059,-0.0004
 7057,-0.00012398,-0.00028756,-0.00116637,0.00008479,-0.00056180,-0.000
 05664,-0.00130119,0.00019603,0.00011632,-0.00040851,0.00017825,-0.0067
 3319,0.00021378,-0.00208457,-0.00024052,-0.00011950,-0.00000536,-0.000
 01118,0.00000477,-0.00003154,-0.00000457,-0.00007564,0.00005310,-0.000
 03517,-0.00005216,0.00000868,-0.00001504,0.00005150,-0.00002640,0.0000
 0405,0.00000653,0.00000439,-0.00001018,0.00004932,-0.00002371,-0.00001
 414,0.00002196,0.00001303,-0.00000995,-0.00000392,-0.00001150,-0.00000
 881,-0.00000311,0.00000929,0.00353482,-0.00020645,0.00357069,0.0000631
 3,0.00050132,-0.00212406,-0.00010625,0.00014546,-0.00057839,-0.0007224
 2,0.00015084,-0.00103101,0.01497541,0.00599389,-0.01795505,-0.00041499
 ,0.00014044,-0.00006727,-0.00123248,-0.00414680,-0.00249243,-0.0024384
 0,0.00420517,-0.00107303,0.00014768,-0.00044936,-0.00035705,0.00108324
 ,-0.00151348,0.00001108,0.00005121,-0.00042668,-0.00007645,0.00029424,
 0.00032941,0.00008527,0.00009108,0.00052714,-0.00018986,0.00061855,0.0
 0123422,0.00055524,0.00008688,-0.00002017,0.00012156,0.00001032,0.0000
 7261,0.00005586,0.00028095,-0.00012200,0.00024451,-0.00014240,0.000053
 75,0.00004220,0.00048509,-0.00006218,-0.00057617,-0.00000621,0.0001042
 8,0.00003280,-0.00003237,0.00025492,0.00023111,-0.00003264,0.00002880,
 0.00021704,0.00005120,0.00011782,0.00006666,-0.00000253,0.00047782,-0.
 00040866,-0.00007312,0.00004511,-0.00008763,-0.00003047,-0.00012829,0.
 00003877,-0.03401162,-0.14611100,0.36560166,-0.00701325,-0.00789838,-0
 .00848736,-0.00036686,0.00083423,0.00111047,0.00269648,0.00021919,0.00
 200038,0.00032474,0.00000972,0.00041016,-0.00022886,0.00100978,-0.0003
 7828,0.00308249,0.00347804,0.00691960,0.00055829,0.00057544,0.00078478
 ,-0.00003527,-0.00025672,-0.00001357,0.00011184,0.00031672,-0.00023775
 ,-0.00001276,-0.00000812,0.00006361,0.00004139,-0.00012330,0.00005873,
 0.00000082,-0.00001123,-0.00003433,-0.00002506,-0.00010711,0.00005127,
 0.00003918,-0.00005380,-0.00002855,0.00002330,0.00001861,0.00000332,0.
 00002156,-0.00000393,-0.00001415,0.00024224,-0.00008404,0.00099569,0.0
 0020309,0.00046900,0.00043242,-0.00017075,-0.00003609,-0.00010936,-0.0
 0006961,0.00001168,-0.00006498,0.00137549,0.00006015,-0.00122087,0.000
 02363,0.00009190,0.00015962,-0.00027188,-0.00046384,-0.00003944,-0.000
 26141,0.00043260,-0.00006764,0.00008449,-0.00005879,-0.00014285,0.0001
 4290,-0.00014314,-0.00000110,0.00000128,-0.00003741,0.00000730,0.00002
 660,0.00000973,0.00000039,0.00004054,0.00019806,0.00001215,0.00003756,
 0.00009719,0.00002773,-0.00017721,0.00002676,0.00006934,0.00000398,0.0
 0001410,0.00000938,0.00004388,-0.00001908,0.00000937,-0.00001596,0.000
 00276,0.00000509,0.00005082,-0.00000184,-0.00006342,0.00000342,0.00000
 751,-0.00000452,0.00006050,0.00007056,-0.00005617,-0.00008687,-0.00006
 693,-0.00006989,0.00007833,-0.00003853,0.00002513,-0.00000265,0.000038
 89,-0.00003191,-0.00001195,0.00000611,-0.00001143,0.00000165,-0.000010
 03,-0.00000723,-0.38490334,0.10790686,-0.12118682,0.41281606,-0.000746
 31,0.00264094,0.00080477,0.00016974,-0.00022826,-0.00031375,-0.0007150
 6,-0.00030100,-0.00087280,-0.00028872,-0.00004100,-0.00023804,0.000079
 96,-0.00026162,0.00020549,-0.00080014,-0.00414804,-0.00107701,-0.00001
 882,-0.00040842,-0.00009853,-0.00008309,-0.00023309,-0.00000156,0.0000
 2648,-0.00011296,0.00003561,-0.00000951,-0.00000908,-0.00004494,0.0000
 1250,0.00003263,0.00000477,-0.00001920,0.00002149,0.00000994,0.0000034
 7,0.00006006,-0.00003936,-0.00000176,0.00001450,0.00001211,-0.00001410
 ,-0.00000719,-0.00001037,-0.00000333,-0.00000852,-0.00000307,-0.000127
 87,0.00004099,-0.00010666,0.00017730,-0.00051504,-0.00027486,0.0000801
 1,-0.00000141,0.00014662,0.00004822,-0.00004666,0.00006530,-0.00014763
 ,-0.00029621,0.00077819,0.00003648,-0.00005661,0.00007222,0.00010540,0
 .00023105,0.00005657,0.00017684,-0.00011858,-0.00007168,0.00002952,0.0
 0004922,-0.00000364,-0.00001676,0.00002288,0.00000399,-0.00000972,-0.0
 0000149,0.00000495,-0.00000449,-0.00000940,-0.00002065,-0.00000376,0.0
 0006536,-0.00011526,-0.00002253,-0.00004871,-0.00002007,0.00003070,-0.
 00000658,-0.00000771,0.00000360,-0.00000813,-0.00001166,-0.00001396,-0
 .00000026,-0.00000189,-0.00000382,-0.00000328,0.00000119,-0.00001092,0
 .00000450,0.00001158,-0.00000093,-0.00000446,-0.00000097,0.00006699,-0
 .00002419,-0.00000662,-0.00003134,-0.00003653,0.00001970,0.00016613,0.
 00001888,-0.00003280,0.00000186,-0.00001655,0.00001270,-0.00000091,-0.
 00000793,0.00000679,0.00000282,0.00001058,-0.00001071,0.12543767,-0.05
 024719,0.05689474,-0.11490382,0.04985263,-0.00539339,-0.00472326,-0.00
 583368,-0.00017366,0.00042819,0.00067486,0.00198502,0.00009350,0.00143
 927,0.00006769,-0.00008175,-0.00048395,-0.00017808,0.00070832,-0.00024
 352,0.00433021,0.00213295,0.00148265,0.00022877,0.00031823,0.00028558,
 -0.00002399,-0.00013438,0.00000231,0.00008821,0.00021606,-0.00016538,0
 .00003660,0.00001545,0.00004456,0.00003329,-0.00010044,0.00003800,-0.0
 0001376,-0.00003058,-0.00002255,0.00000371,-0.00007255,0.00003408,0.00
 002775,-0.00003568,-0.00001731,0.00002399,0.00000609,0.00002185,0.0000
 0945,0.00000716,-0.00001684,0.00037421,0.00023642,-0.00009380,0.000107
 63,-0.00064801,-0.00029474,-0.00004679,-0.00006298,0.00010670,-0.00013
 534,-0.00002459,-0.00013920,-0.00012636,0.00072382,-0.00161192,-0.0000
 5475,0.00008749,0.00002323,-0.00013872,-0.00024555,-0.00004423,-0.0002
 6985,0.00017580,0.00019624,-0.00002150,-0.00000028,0.00012931,0.000000
 26,-0.00002481,-0.00002317,-0.00002117,-0.00005041,0.00002632,0.000002
 32,-0.00000240,0.00000007,0.00006824,0.00004897,0.00007152,0.00004565,
 0.00004311,0.00001424,0.00003689,0.00003043,-0.00008940,0.00000848,0.0
 0000180,-0.00002184,0.00000693,0.00000150,-0.00001157,-0.00000277,0.00
 000342,-0.00001232,0.00001020,-0.00001142,-0.00000807,-0.00000693,0.00
 000141,0.00000531,0.00001080,0.00003967,-0.00001752,-0.00004211,0.0000
 0576,-0.00004974,0.00007691,0.00012432,-0.00001808,-0.00000235,0.00001
 985,-0.00002613,-0.00000690,0.00000513,-0.00000550,-0.00000369,-0.0000
 0310,-0.00000617,-0.15988984,0.06238651,-0.09648887,0.12895409,-0.0528
 7527,0.08898014,-0.00024605,-0.00063750,-0.00095393,-0.00035780,-0.000
 14226,0.00018320,0.00017301,0.00007799,0.00023345,-0.00007811,0.000638
 35,-0.00104160,-0.00000373,0.00005034,-0.00002225,0.00143686,0.0002103
 8,0.00057246,0.00000313,0.00008939,0.00010773,0.00000523,-0.00001482,-
 0.00000717,0.00001266,0.00002261,-0.00001009,-0.00000945,-0.00002503,0
 .00001280,0.00000146,-0.00000599,0.00000564,0.00000008,-0.00000385,-0.
 00000186,-0.00000288,-0.00000817,-0.00000582,0.00000197,-0.00000289,0.
 00000101,0.00000268,0.00000155,0.00000329,0.00000077,0.00000123,-0.000
 00046,0.00513913,0.00118217,-0.00095839,-0.00042196,-0.00113170,-0.000
 50795,-0.00001399,-0.00013379,0.00023879,-0.00138050,-0.00015889,-0.00
 196340,-0.00137363,0.00346772,-0.01168824,-0.00045356,0.00021063,-0.00
 043682,-0.00223422,-0.00471156,-0.00046685,-0.00421097,0.00355787,0.00
 250999,-0.00055485,-0.00054228,0.00033321,0.00067088,-0.00076751,-0.00
 006218,0.00026839,-0.00038872,-0.00017722,0.00018785,0.00021452,0.0000
 6109,0.00042218,-0.00014953,0.00004773,0.00059066,0.00101973,0.0003790
 3,-0.00089165,0.00061688,-0.00065067,0.00011731,0.00007501,-0.00002116
 ,0.00047102,-0.00012084,0.00005657,-0.00009217,0.00006680,-0.00005432,
 0.00035203,-0.00008637,-0.00038270,0.00002699,0.00008987,-0.00002165,-
 0.00025014,0.00045403,0.00032240,-0.00003933,-0.00023887,-0.00009859,-
 0.00015880,0.00004794,-0.00019180,0.00001812,0.00041201,-0.00037339,-0
 .00009159,0.00003929,-0.00009807,-0.00002738,-0.00008551,-0.00001747,-
 0.17953263,-0.03986082,0.14531807,-0.02848286,-0.00865729,0.03001466,0
 .21100580,-0.00021549,-0.00018725,-0.00020109,-0.00015526,-0.00011912,
 0.00008100,0.00011036,0.00000431,0.00007497,-0.00006169,0.00055297,-0.
 00075268,-0.00000475,0.00004244,-0.00002323,0.00053249,-0.00018100,0.0
 0064504,0.00001050,-0.00000007,0.00001312,-0.00001445,-0.00000862,0.00
 000466,0.00000462,0.00000754,-0.00000594,0.00000248,0.00000090,0.00000
 722,-0.00000025,-0.00000380,0.00000282,0.00000327,-0.00000050,0.000003
 09,-0.00000147,-0.00000918,0.00000161,0.00000165,-0.00000249,-0.000000
 63,0.00000146,0.00000365,-0.00000050,-0.00000092,-0.00000038,-0.000000
 59,0.00195543,0.00046240,0.00144042,-0.00042028,-0.00091706,-0.0003846
 0,-0.00001357,-0.00010267,0.00017487,-0.00047027,-0.00004212,-0.000745
 70,0.00299444,-0.00600926,-0.00584844,-0.00004951,-0.00004957,0.000032
 38,-0.00236498,-0.00330576,0.00258988,0.00009123,0.00243340,-0.0025991
 2,0.00026947,-0.00030954,-0.00044852,0.00083539,-0.00099388,-0.0000027
 9,0.00014839,-0.00033524,-0.00022220,0.00014617,0.00007136,-0.00003720
 ,-0.00008642,-0.00096554,0.00078281,0.00000277,-0.00003012,-0.00005496
 ,0.00037806,-0.00031428,0.00029201,-0.00007310,0.00002740,0.00009494,0
 .00008573,-0.00005740,0.00012120,-0.00010095,0.00002354,0.00003729,0.0
 0030080,-0.00001647,-0.00037048,0.00000135,0.00004336,0.00001814,0.000
 09362,0.00041648,-0.00020427,-0.00028107,-0.00066419,-0.00078651,0.000
 21889,-0.00022299,0.00008629,0.00000806,0.00009968,-0.00003152,-0.0000
 2493,0.00003719,-0.00004286,-0.00000349,-0.00000302,-0.00006663,-0.057
 60218,-0.04060313,0.08163691,0.00842054,0.00414268,-0.00873388,0.04532
 786,0.04708537,-0.00041632,0.00105535,0.00180966,0.00093061,0.00017761
 ,-0.00010413,0.00013072,-0.00025999,-0.00030729,-0.00076284,-0.0010285
 0,-0.00084878,-0.00001281,0.00004043,-0.00002387,-0.00139697,0.0000857
 5,-0.00220872,0.00012325,-0.00010175,-0.00023071,-0.00000392,-0.000006
 04,0.00000874,-0.00002130,-0.00003057,0.00000953,0.00002531,0.00007149
 ,-0.00003490,0.00000200,-0.00000278,0.00000427,-0.00000194,0.00001609,
 0.00000780,0.00001881,-0.00001240,0.00001360,-0.00000129,-0.00000497,-
 0.00000620,-0.00000406,-0.00000397,-0.00000253,0.00000249,-0.00000171,
 -0.00000436,-0.00529383,0.00093710,-0.00891219,-0.00051509,-0.00111060
 ,-0.00053269,0.00015908,0.00020934,0.00022890,0.00094846,0.00000874,0.
 00235048,-0.01116019,-0.00585152,0.01192217,0.00045131,-0.00000010,0.0
 0040158,0.00262017,0.00723449,0.00311400,0.00520011,-0.00663245,-0.000
 39653,-0.00040256,0.00087531,0.00085423,-0.00172631,0.00202143,0.00011
 972,-0.00023403,0.00050701,0.00023438,-0.00051123,-0.00054265,-0.00017
 257,-0.00011135,-0.00026926,0.00081340,-0.00107011,-0.00207154,-0.0007
 0835,0.00007743,0.00000888,-0.00001009,-0.00007333,-0.00012986,-0.0001
 1002,-0.00059406,0.00020416,-0.00038411,0.00021060,-0.00009418,-0.0000
 2064,-0.00071330,0.00011699,0.00086981,-0.00002537,-0.00016559,0.00001
 183,0.00023471,-0.00062871,-0.00066763,-0.00014423,0.00014413,-0.00045
 466,0.00007553,0.00007074,0.00008124,-0.00000641,-0.00076577,0.0006992
 6,0.00011905,-0.00006084,0.00014357,0.00005227,0.00017327,-0.00003020,
 0.18384641,0.07528112,-0.24587943,-0.00983842,-0.00288735,0.01216926,-
 0.16018704,-0.06657634,0.22618314\\-0.00000130,0.00000311,-0.00000582,
 0.00000074,0.00000444,-0.00000483,0.00000020,0.00000576,-0.00000788,-0
 .00000026,0.00000130,-0.00000233,0.00000275,0.00000656,-0.00000532,-0.
 00000158,0.00000080,-0.00000293,-0.00000421,0.00000294,-0.00001006,-0.
 00000568,0.00000107,-0.00000813,-0.00000410,0.00000479,-0.00001098,-0.
 00000561,0.00000215,-0.00000954,0.00000401,0.00000880,-0.00000700,0.00
 000377,0.00000576,-0.00000361,0.00000206,0.00000548,-0.00000511,0.0000
 0415,0.00000633,-0.00000435,0.00000084,0.00000360,-0.00000435,0.000001
 09,0.00000619,-0.00000768,0.00000089,0.00000039,0.00000058,-0.00000237
 ,-0.00000013,-0.00000288,-0.00000012,0.00000169,-0.00000240,0.00000343
 ,0.00000183,0.00000169,-0.00000013,-0.00000213,0.00000273,0.00000167,0
 .00000090,0.00000066,0.00000122,-0.00000263,0.00000518,-0.00000092,-0.
 00000305,0.00000296,-0.00000299,-0.00000536,0.00000421,0.00000144,-0.0
 0000204,0.00000471,-0.00000208,-0.00000215,0.00000071,0.00000080,-0.00
 000432,0.00000691,0.00000054,-0.00000355,0.00000554,0.00000424,-0.0000
 0139,0.00000680,-0.00000495,-0.00000632,0.00000303,-0.00000233,-0.0000
 0671,0.00000639,-0.00000406,-0.00000638,0.00000395,0.00000287,-0.00000
 024,0.00000346,0.00000057,-0.00000273,0.00000418,0.00000216,-0.0000028
 5,0.00000684,0.00000151,-0.00000407,0.00000730,-0.00000202,-0.00000533
 ,0.00000478,0.00000067,-0.00000195,0.00000352,0.00000491,-0.00000181,0
 .00000860,0.00000518,0.00000045,0.00000555,0.00000512,-0.00000036,0.00
 000663,-0.00000479,-0.00000347,-0.00000117,-0.00000401,-0.00000219,-0.
 00000143,-0.00000331,-0.00000319,0.00000087\\\@


 KINETICS       FACT
 ---------  =  -------
 MECHANISM     FICTION
 Job cpu time:       1 days  8 hours 21 minutes 19.1 seconds.
 File lengths (MBytes):  RWF=   1522 Int=      0 D2E=      0 Chk=     41 Scr=      1
 Normal termination of Gaussian 09 at Mon Jun 24 14:32:01 2019.
