 Entering Gaussian System, Link 0=g09
 Input=/rdsgpfs/general/user/smf115/home/vxHydrolysis/ReactionSMD/Diffuse/path1/TS1b_sp.com
 Output=/rdsgpfs/general/user/smf115/home/vxHydrolysis/ReactionSMD/Diffuse/path1/TS1b_sp.log
 Initial command:
 /apps/gaussian/g09_d01/g09/l1.exe "/tmp/pbs.696155.pbs/Gau-8758.inp" -scrdir="/tmp/pbs.696155.pbs/"
 Entering Link 1 = /apps/gaussian/g09_d01/g09/l1.exe PID=      8759.
  
 Copyright (c) 1988,1990,1992,1993,1995,1998,2003,2009,2013,
            Gaussian, Inc.  All Rights Reserved.
  
 This is part of the Gaussian(R) 09 program.  It is based on
 the Gaussian(R) 03 system (copyright 2003, Gaussian, Inc.),
 the Gaussian(R) 98 system (copyright 1998, Gaussian, Inc.),
 the Gaussian(R) 94 system (copyright 1995, Gaussian, Inc.),
 the Gaussian 92(TM) system (copyright 1992, Gaussian, Inc.),
 the Gaussian 90(TM) system (copyright 1990, Gaussian, Inc.),
 the Gaussian 88(TM) system (copyright 1988, Gaussian, Inc.),
 the Gaussian 86(TM) system (copyright 1986, Carnegie Mellon
 University), and the Gaussian 82(TM) system (copyright 1983,
 Carnegie Mellon University). Gaussian is a federally registered
 trademark of Gaussian, Inc.
  
 This software contains proprietary and confidential information,
 including trade secrets, belonging to Gaussian, Inc.
  
 This software is provided under written license and may be
 used, copied, transmitted, or stored only in accord with that
 written license.
  
 The following legend is applicable only to US Government
 contracts under FAR:
  
                    RESTRICTED RIGHTS LEGEND
  
 Use, reproduction and disclosure by the US Government is
 subject to restrictions as set forth in subparagraphs (a)
 and (c) of the Commercial Computer Software - Restricted
 Rights clause in FAR 52.227-19.
  
 Gaussian, Inc.
 340 Quinnipiac St., Bldg. 40, Wallingford CT 06492
  
  
 ---------------------------------------------------------------
 Warning -- This program may not be used in any manner that
 competes with the business of Gaussian, Inc. or will provide
 assistance to any competitor of Gaussian, Inc.  The licensee
 of this program is prohibited from giving any competitor of
 Gaussian, Inc. access to this program.  By using this program,
 the user acknowledges that Gaussian, Inc. is engaged in the
 business of creating and licensing software in the field of
 computational chemistry and represents and warrants to the
 licensee that it is not a competitor of Gaussian, Inc. and that
 it will not use this program in any manner prohibited above.
 ---------------------------------------------------------------
  

 Cite this work as:
 Gaussian 09, Revision D.01,
 M. J. Frisch, G. W. Trucks, H. B. Schlegel, G. E. Scuseria, 
 M. A. Robb, J. R. Cheeseman, G. Scalmani, V. Barone, B. Mennucci, 
 G. A. Petersson, H. Nakatsuji, M. Caricato, X. Li, H. P. Hratchian, 
 A. F. Izmaylov, J. Bloino, G. Zheng, J. L. Sonnenberg, M. Hada, 
 M. Ehara, K. Toyota, R. Fukuda, J. Hasegawa, M. Ishida, T. Nakajima, 
 Y. Honda, O. Kitao, H. Nakai, T. Vreven, J. A. Montgomery, Jr., 
 J. E. Peralta, F. Ogliaro, M. Bearpark, J. J. Heyd, E. Brothers, 
 K. N. Kudin, V. N. Staroverov, T. Keith, R. Kobayashi, J. Normand, 
 K. Raghavachari, A. Rendell, J. C. Burant, S. S. Iyengar, J. Tomasi, 
 M. Cossi, N. Rega, J. M. Millam, M. Klene, J. E. Knox, J. B. Cross, 
 V. Bakken, C. Adamo, J. Jaramillo, R. Gomperts, R. E. Stratmann, 
 O. Yazyev, A. J. Austin, R. Cammi, C. Pomelli, J. W. Ochterski, 
 R. L. Martin, K. Morokuma, V. G. Zakrzewski, G. A. Voth, 
 P. Salvador, J. J. Dannenberg, S. Dapprich, A. D. Daniels, 
 O. Farkas, J. B. Foresman, J. V. Ortiz, J. Cioslowski, 
 and D. J. Fox, Gaussian, Inc., Wallingford CT, 2013.
 
 ******************************************
 Gaussian 09:  ES64L-G09RevD.01 24-Apr-2013
                 5-Nov-2019 
 ******************************************
 %Chk=TS1b_sp
 %NProcShared=12
 Will use up to   12 processors via shared memory.
 %Mem=45000MB
 ----------------------------------------------------------------------
 #P M062X/6-311++G(d,p) Opt(TS,NoEigen,RCFC,Tight) Freq SCRF(SMD) SCF(C
 onver=9) Int(Grid=UltraFine) Geom(Check) Guess(Read)
 ----------------------------------------------------------------------
 1/5=1,7=10,10=5,11=1,14=-1,18=20,26=4,29=2,38=1/1,3;
 2/9=110,12=2,40=1/2;
 3/5=4,6=6,7=1111,11=2,14=-4,16=1,25=1,30=1,70=32201,71=1,72=1,74=-55,75=-5,116=-2/1,2,3;
 4/5=1/1;
 5/5=2,6=9,38=6/2;
 6/7=2,8=2,9=2,10=2,28=1/1;
 7//1,2,3,16;
 1/5=1,7=10,11=1,14=-1,18=20,26=4/3(2);
 2/9=110/2;
 99//99;
 2/9=110/2;
 3/5=4,6=6,7=1111,11=2,14=-2,16=1,25=1,30=1,70=32205,71=1,74=-55,75=-5/1,2,3;
 4/5=5,16=3,69=1/1;
 5/5=2,6=9,38=5/2;
 7//1,2,3,16;
 1/5=1,7=10,11=1,14=-1,18=20,26=4/3(-5);
 2/9=110/2;
 6/7=2,8=2,9=2,10=2,19=2,28=1/1;
 99/9=1/99;
 Leave Link    1 at Tue Nov  5 10:37:12 2019, MaxMem=  5898240000 cpu:         0.6
 (Enter /apps/gaussian/g09_d01/g09/l101.exe)
 ----------
 TS1b_sp TS
 ----------
 Structure from the checkpoint file:  "TS1b_sp.chk"
 Charge =  0 Multiplicity = 1
 Redundant internal coordinates found in file.
 P,0,1.9807884068,-0.109061844,0.105347812
 S,0,1.0232011894,0.6101683832,1.8733895353
 O,0,1.3665801995,0.7618662432,-1.0885655886
 C,0,-0.4178231831,-0.4896252231,2.1618612202
 C,0,0.945487067,2.1487210725,-0.9707868131
 O,0,1.4810707813,-1.6112662591,0.1601442444
 C,0,3.6829292083,0.3136851691,0.5150120767
 H,0,4.1833816363,-0.6092698124,0.8137458363
 H,0,3.7092779349,1.0248349554,1.3406007372
 H,0,4.1685005144,0.7219227493,-0.3685900849
 H,0,0.1740626044,2.2150114832,-0.204477095
 H,0,0.5033972375,2.362604854,-1.9421340206
 C,0,2.1106165061,3.0678912812,-0.6852728328
 H,0,1.7663476505,4.10204283,-0.7530417556
 H,0,2.9084171142,2.9196007114,-1.4157495982
 H,0,2.5145577571,2.9165192308,0.3188492619
 C,0,-1.7379494227,-0.097082381,1.5113104246
 H,0,-0.1104451675,-1.5082021662,1.9381766754
 H,0,-0.5479517675,-0.4236626603,3.2438747601
 H,0,-2.5112289483,-0.6854471366,2.0335696167
 N,0,-1.8142349778,-0.2601272984,0.0645670356
 H,0,-1.9333281364,0.9516502605,1.7485648861
 C,0,-2.9635372445,0.4740884895,-0.5207537981
 C,0,-1.7211628518,-1.667507924,-0.3766214269
 C,0,-1.2365870523,-1.7491331161,-1.8233797131
 C,0,-2.9917803384,-2.5050119321,-0.1883165852
 H,0,-0.9428790036,-2.122043746,0.2365787168
 H,0,-3.1929315066,-0.0224801557,-1.4657638143
 C,0,-2.5752810106,1.9139000972,-0.8459174215
 C,0,-4.2485066585,0.4692027627,0.3221958753
 H,0,-0.3080199224,-1.1885552776,-1.9536023004
 H,0,-1.9784186574,-1.3568914013,-2.5245595545
 H,0,-1.0499799281,-2.7919858319,-2.093416602
 H,0,-3.3490374701,-2.4769881659,0.843953343
 H,0,-2.776687138,-3.5475607825,-0.4370090147
 H,0,-3.7972551582,-2.1651155943,-0.8454278244
 H,0,-3.4400724804,2.4617775257,-1.2304672836
 H,0,-1.7872721805,1.9454137907,-1.599817004
 H,0,-2.2209423094,2.4350559994,0.0491896141
 H,0,-5.069799572,0.8665861824,-0.27939162
 H,0,-4.1477152896,1.1090555295,1.2031316922
 H,0,-4.5291573378,-0.5299551032,0.6563346999
 O,0,2.9489728549,-1.1881890883,-1.5748674496
 H,0,2.5198316737,-0.8935693715,-2.3847704295
 H,0,2.0042253771,-1.9090023294,-0.6955854334
 Recover connectivity data from disk.
 NAtoms=     45 NQM=       45 NQMF=       0 NMMI=      0 NMMIF=      0
                NMic=       0 NMicF=      0.
                    Isotopes and Nuclear Properties:
 (Nuclear quadrupole moments (NQMom) in fm**2, nuclear magnetic moments (NMagM)
  in nuclear magnetons)

  Atom         1           2           3           4           5           6           7           8           9          10
 IAtWgt=          31          32          16          12          12          16          12           1           1           1
 AtmWgt=  30.9737634  31.9720718  15.9949146  12.0000000  12.0000000  15.9949146  12.0000000   1.0078250   1.0078250   1.0078250
 NucSpn=           1           0           0           0           0           0           0           1           1           1
 AtZEff= -12.9400000 -13.6000000  -5.6000000  -3.6000000  -3.6000000  -5.6000000  -3.6000000  -1.0000000  -1.0000000  -1.0000000
 NQMom=    0.0000000   0.0000000   0.0000000   0.0000000   0.0000000   0.0000000   0.0000000   0.0000000   0.0000000   0.0000000
 NMagM=    1.1316000   0.0000000   0.0000000   0.0000000   0.0000000   0.0000000   0.0000000   2.7928460   2.7928460   2.7928460
 AtZNuc=  15.0000000  16.0000000   8.0000000   6.0000000   6.0000000   8.0000000   6.0000000   1.0000000   1.0000000   1.0000000

  Atom        11          12          13          14          15          16          17          18          19          20
 IAtWgt=           1           1          12           1           1           1          12           1           1           1
 AtmWgt=   1.0078250   1.0078250  12.0000000   1.0078250   1.0078250   1.0078250  12.0000000   1.0078250   1.0078250   1.0078250
 NucSpn=           1           1           0           1           1           1           0           1           1           1
 AtZEff=  -1.0000000  -1.0000000  -3.6000000  -1.0000000  -1.0000000  -1.0000000  -3.6000000  -1.0000000  -1.0000000  -1.0000000
 NQMom=    0.0000000   0.0000000   0.0000000   0.0000000   0.0000000   0.0000000   0.0000000   0.0000000   0.0000000   0.0000000
 NMagM=    2.7928460   2.7928460   0.0000000   2.7928460   2.7928460   2.7928460   0.0000000   2.7928460   2.7928460   2.7928460
 AtZNuc=   1.0000000   1.0000000   6.0000000   1.0000000   1.0000000   1.0000000   6.0000000   1.0000000   1.0000000   1.0000000

  Atom        21          22          23          24          25          26          27          28          29          30
 IAtWgt=          14           1          12          12          12          12           1           1          12          12
 AtmWgt=  14.0030740   1.0078250  12.0000000  12.0000000  12.0000000  12.0000000   1.0078250   1.0078250  12.0000000  12.0000000
 NucSpn=           2           1           0           0           0           0           1           1           0           0
 AtZEff=  -4.5500000  -1.0000000  -3.6000000  -3.6000000  -3.6000000  -3.6000000  -1.0000000  -1.0000000  -3.6000000  -3.6000000
 NQMom=    2.0440000   0.0000000   0.0000000   0.0000000   0.0000000   0.0000000   0.0000000   0.0000000   0.0000000   0.0000000
 NMagM=    0.4037610   2.7928460   0.0000000   0.0000000   0.0000000   0.0000000   2.7928460   2.7928460   0.0000000   0.0000000
 AtZNuc=   7.0000000   1.0000000   6.0000000   6.0000000   6.0000000   6.0000000   1.0000000   1.0000000   6.0000000   6.0000000

  Atom        31          32          33          34          35          36          37          38          39          40
 IAtWgt=           1           1           1           1           1           1           1           1           1           1
 AtmWgt=   1.0078250   1.0078250   1.0078250   1.0078250   1.0078250   1.0078250   1.0078250   1.0078250   1.0078250   1.0078250
 NucSpn=           1           1           1           1           1           1           1           1           1           1
 AtZEff=  -1.0000000  -1.0000000  -1.0000000  -1.0000000  -1.0000000  -1.0000000  -1.0000000  -1.0000000  -1.0000000  -1.0000000
 NQMom=    0.0000000   0.0000000   0.0000000   0.0000000   0.0000000   0.0000000   0.0000000   0.0000000   0.0000000   0.0000000
 NMagM=    2.7928460   2.7928460   2.7928460   2.7928460   2.7928460   2.7928460   2.7928460   2.7928460   2.7928460   2.7928460
 AtZNuc=   1.0000000   1.0000000   1.0000000   1.0000000   1.0000000   1.0000000   1.0000000   1.0000000   1.0000000   1.0000000

  Atom        41          42          43          44          45
 IAtWgt=           1           1          16           1           1
 AtmWgt=   1.0078250   1.0078250  15.9949146   1.0078250   1.0078250
 NucSpn=           1           1           0           1           1
 AtZEff=  -1.0000000  -1.0000000  -5.6000000  -1.0000000  -1.0000000
 NQMom=    0.0000000   0.0000000   0.0000000   0.0000000   0.0000000
 NMagM=    2.7928460   2.7928460   0.0000000   2.7928460   2.7928460
 AtZNuc=   1.0000000   1.0000000   8.0000000   1.0000000   1.0000000
 Leave Link  101 at Tue Nov  5 10:37:13 2019, MaxMem=  5898240000 cpu:         4.5
 (Enter /apps/gaussian/g09_d01/g09/l103.exe)

 GradGradGradGradGradGradGradGradGradGradGradGradGradGradGradGradGradGrad
 Berny optimization.
 Initialization pass.
 Cartesian force constants read from checkpoint file:
 "TS1b_sp.chk"
 FormGI is forming the generalized inverse of G from B-inverse, IUseBI=4.
                           ----------------------------
                           !    Initial Parameters    !
                           ! (Angstroms and Degrees)  !
 --------------------------                            --------------------------
 ! Name  Definition              Value          Derivative Info.                !
 --------------------------------------------------------------------------------
 ! R1    R(1,2)                  2.1355         D2E/DX2 =    0.1609             !
 ! R2    R(1,3)                  1.6004         D2E/DX2 =    0.3448             !
 ! R3    R(1,6)                  1.5841         D2E/DX2 =    0.2864             !
 ! R4    R(1,7)                  1.8011         D2E/DX2 =    0.2247             !
 ! R5    R(1,43)                 2.2192         D2E/DX2 =    0.0196             !
 ! R6    R(2,4)                  1.8356         D2E/DX2 =    0.2066             !
 ! R7    R(3,5)                  1.4542         D2E/DX2 =    0.2974             !
 ! R8    R(4,17)                 1.5232         D2E/DX2 =    0.2998             !
 ! R9    R(4,18)                 1.0872         D2E/DX2 =    0.3552             !
 ! R10   R(4,19)                 1.0918         D2E/DX2 =    0.3442             !
 ! R11   R(5,11)                 1.0894         D2E/DX2 =    0.3499             !
 ! R12   R(5,12)                 1.0884         D2E/DX2 =    0.3511             !
 ! R13   R(5,13)                 1.5113         D2E/DX2 =    0.3037             !
 ! R14   R(6,45)                 1.0462         D2E/DX2 =    0.1754             !
 ! R15   R(7,8)                  1.0916         D2E/DX2 =    0.3486             !
 ! R16   R(7,9)                  1.09           D2E/DX2 =    0.351              !
 ! R17   R(7,10)                 1.0877         D2E/DX2 =    0.3565             !
 ! R18   R(13,14)                1.0921         D2E/DX2 =    0.3458             !
 ! R19   R(13,15)                1.0918         D2E/DX2 =    0.3452             !
 ! R20   R(13,16)                1.0929         D2E/DX2 =    0.3439             !
 ! R21   R(17,20)                1.1031         D2E/DX2 =    0.3157             !
 ! R22   R(17,21)                1.4579         D2E/DX2 =    0.3401             !
 ! R23   R(17,22)                1.0928         D2E/DX2 =    0.3402             !
 ! R24   R(21,23)                1.4841         D2E/DX2 =    0.3252             !
 ! R25   R(21,24)                1.4778         D2E/DX2 =    0.3267             !
 ! R26   R(23,28)                1.0919         D2E/DX2 =    0.3411             !
 ! R27   R(23,29)                1.5263         D2E/DX2 =    0.2934             !
 ! R28   R(23,30)                1.5368         D2E/DX2 =    0.2748             !
 ! R29   R(24,25)                1.5279         D2E/DX2 =    0.2907             !
 ! R30   R(24,26)                1.5334         D2E/DX2 =    0.2756             !
 ! R31   R(24,27)                1.0901         D2E/DX2 =    0.3467             !
 ! R32   R(25,31)                1.0924         D2E/DX2 =    0.3438             !
 ! R33   R(25,32)                1.0935         D2E/DX2 =    0.3407             !
 ! R34   R(25,33)                1.0933         D2E/DX2 =    0.3414             !
 ! R35   R(26,34)                1.0927         D2E/DX2 =    0.3427             !
 ! R36   R(26,35)                1.0932         D2E/DX2 =    0.3414             !
 ! R37   R(26,36)                1.0937         D2E/DX2 =    0.3404             !
 ! R38   R(29,37)                1.0936         D2E/DX2 =    0.3409             !
 ! R39   R(29,38)                1.091          D2E/DX2 =    0.3466             !
 ! R40   R(29,39)                1.0947         D2E/DX2 =    0.3379             !
 ! R41   R(30,40)                1.0929         D2E/DX2 =    0.3421             !
 ! R42   R(30,41)                1.0934         D2E/DX2 =    0.3405             !
 ! R43   R(30,42)                1.0903         D2E/DX2 =    0.3499             !
 ! R44   R(43,44)                0.9628         D2E/DX2 =    0.5412             !
 ! R45   R(43,45)                1.4783         D2E/DX2 =    0.015              !
 ! A1    A(2,1,3)              105.205          D2E/DX2 =    0.0401             !
 ! A2    A(2,1,6)               98.586          D2E/DX2 =    0.0345             !
 ! A3    A(2,1,7)               98.9989         D2E/DX2 =    0.0478             !
 ! A4    A(3,1,6)              114.8856         D2E/DX2 =    0.0231             !
 ! A5    A(3,1,7)              113.87           D2E/DX2 =    0.0324             !
 ! A6    A(3,1,43)              82.3707         D2E/DX2 =    0.0286             !
 ! A7    A(6,1,7)              120.8541         D2E/DX2 =    0.0216             !
 ! A8    A(6,1,43)              72.704          D2E/DX2 =    0.0237             !
 ! A9    A(7,1,43)              82.7637         D2E/DX2 =    0.0358             !
 ! A10   A(1,2,4)              106.2813         D2E/DX2 =    0.491              !
 ! A11   A(1,3,5)              124.7315         D2E/DX2 =    0.3006             !
 ! A12   A(2,4,17)             117.3144         D2E/DX2 =    0.3869             !
 ! A13   A(2,4,18)             107.8815         D2E/DX2 =    0.0963             !
 ! A14   A(2,4,19)             102.3051         D2E/DX2 =    0.0824             !
 ! A15   A(17,4,18)            113.4912         D2E/DX2 =    0.0839             !
 ! A16   A(17,4,19)            107.7224         D2E/DX2 =    0.0895             !
 ! A17   A(18,4,19)            107.1094         D2E/DX2 =    0.0297             !
 ! A18   A(3,5,11)             108.6674         D2E/DX2 =    0.0712             !
 ! A19   A(3,5,12)             103.4589         D2E/DX2 =    0.0649             !
 ! A20   A(3,5,13)             111.8459         D2E/DX2 =    0.1816             !
 ! A21   A(11,5,12)            109.1588         D2E/DX2 =    0.0299             !
 ! A22   A(11,5,13)            112.0887         D2E/DX2 =    0.0697             !
 ! A23   A(12,5,13)            111.2368         D2E/DX2 =    0.0712             !
 ! A24   A(1,6,45)              94.8089         D2E/DX2 =    0.0433             !
 ! A25   A(1,7,8)              107.2819         D2E/DX2 =    0.0904             !
 ! A26   A(1,7,9)              110.3819         D2E/DX2 =    0.1017             !
 ! A27   A(1,7,10)             108.9781         D2E/DX2 =    0.0907             !
 ! A28   A(8,7,9)              109.4686         D2E/DX2 =    0.0426             !
 ! A29   A(8,7,10)             109.5713         D2E/DX2 =    0.0393             !
 ! A30   A(9,7,10)             111.0775         D2E/DX2 =    0.0451             !
 ! A31   A(5,13,14)            108.7352         D2E/DX2 =    0.0955             !
 ! A32   A(5,13,15)            110.7532         D2E/DX2 =    0.1005             !
 ! A33   A(5,13,16)            111.9812         D2E/DX2 =    0.1065             !
 ! A34   A(14,13,15)           108.509          D2E/DX2 =    0.0467             !
 ! A35   A(14,13,16)           107.7404         D2E/DX2 =    0.0489             !
 ! A36   A(15,13,16)           109.0155         D2E/DX2 =    0.0518             !
 ! A37   A(4,17,20)            105.5384         D2E/DX2 =    0.0848             !
 ! A38   A(4,17,21)            116.1271         D2E/DX2 =    0.3229             !
 ! A39   A(4,17,22)            108.0314         D2E/DX2 =    0.0823             !
 ! A40   A(20,17,21)           111.9307         D2E/DX2 =    0.0803             !
 ! A41   A(20,17,22)           106.4828         D2E/DX2 =    0.0219             !
 ! A42   A(21,17,22)           108.2645         D2E/DX2 =    0.0691             !
 ! A43   A(17,21,23)           112.1213         D2E/DX2 =    0.141              !
 ! A44   A(17,21,24)           113.5443         D2E/DX2 =    0.1325             !
 ! A45   A(23,21,24)           113.7134         D2E/DX2 =    0.148              !
 ! A46   A(21,23,28)           106.2031         D2E/DX2 =    0.0281             !
 ! A47   A(21,23,29)           110.715          D2E/DX2 =    0.1015             !
 ! A48   A(21,23,30)           115.4427         D2E/DX2 =    0.0986             !
 ! A49   A(28,23,29)           107.3417         D2E/DX2 =    0.0271             !
 ! A50   A(28,23,30)           107.3144         D2E/DX2 =    0.029              !
 ! A51   A(29,23,30)           109.4238         D2E/DX2 =    0.0998             !
 ! A52   A(21,24,25)           110.7029         D2E/DX2 =    0.0962             !
 ! A53   A(21,24,26)           115.5491         D2E/DX2 =    0.0986             !
 ! A54   A(21,24,27)           105.9093         D2E/DX2 =    0.027              !
 ! A55   A(25,24,26)           110.4808         D2E/DX2 =    0.0935             !
 ! A56   A(25,24,27)           106.4947         D2E/DX2 =    0.0283             !
 ! A57   A(26,24,27)           107.1446         D2E/DX2 =    0.028              !
 ! A58   A(24,25,31)           110.795          D2E/DX2 =    0.1008             !
 ! A59   A(24,25,32)           111.8904         D2E/DX2 =    0.1048             !
 ! A60   A(24,25,33)           109.8136         D2E/DX2 =    0.1001             !
 ! A61   A(31,25,32)           108.4286         D2E/DX2 =    0.0506             !
 ! A62   A(31,25,33)           108.3575         D2E/DX2 =    0.0485             !
 ! A63   A(32,25,33)           107.431          D2E/DX2 =    0.0498             !
 ! A64   A(24,26,34)           111.8958         D2E/DX2 =    0.0996             !
 ! A65   A(24,26,35)           109.2629         D2E/DX2 =    0.099              !
 ! A66   A(24,26,36)           111.5151         D2E/DX2 =    0.1006             !
 ! A67   A(34,26,35)           107.6802         D2E/DX2 =    0.0487             !
 ! A68   A(34,26,36)           108.5927         D2E/DX2 =    0.0511             !
 ! A69   A(35,26,36)           107.7352         D2E/DX2 =    0.0485             !
 ! A70   A(23,29,37)           110.2652         D2E/DX2 =    0.1011             !
 ! A71   A(23,29,38)           110.9893         D2E/DX2 =    0.1038             !
 ! A72   A(23,29,39)           110.9308         D2E/DX2 =    0.1015             !
 ! A73   A(37,29,38)           108.2827         D2E/DX2 =    0.0502             !
 ! A74   A(37,29,39)           107.7574         D2E/DX2 =    0.0489             !
 ! A75   A(38,29,39)           108.5104         D2E/DX2 =    0.0499             !
 ! A76   A(23,30,40)           108.9818         D2E/DX2 =    0.0973             !
 ! A77   A(23,30,41)           111.2831         D2E/DX2 =    0.1034             !
 ! A78   A(23,30,42)           112.721          D2E/DX2 =    0.0995             !
 ! A79   A(40,30,41)           107.4565         D2E/DX2 =    0.048              !
 ! A80   A(40,30,42)           107.9677         D2E/DX2 =    0.0488             !
 ! A81   A(41,30,42)           108.245          D2E/DX2 =    0.052              !
 ! A82   A(1,43,44)            107.0761         D2E/DX2 =    0.0169             !
 ! A83   A(1,43,45)             60.5246         D2E/DX2 =    0.0294             !
 ! A84   A(44,43,45)           111.3902         D2E/DX2 =    0.0067             !
 ! A85   A(6,45,43)            131.8596         D2E/DX2 =    0.05               !
 ! A86   L(2,1,43,3,-1)        187.5757         D2E/DX2 =    0.0172             !
 ! A87   L(2,1,43,3,-2)        185.8743         D2E/DX2 =    0.0323             !
 ! D1    D(3,1,2,4)             94.2396         D2E/DX2 =    0.0331             !
 ! D2    D(6,1,2,4)            -24.5798         D2E/DX2 =    0.0214             !
 ! D3    D(7,1,2,4)           -147.8811         D2E/DX2 =    0.0188             !
 ! D4    D(4,2,43,44)           82.9866         D2E/DX2 =    0.0105             !
 ! D5    D(4,2,43,45)          -19.8895         D2E/DX2 =    0.0134             !
 ! D6    D(2,1,3,5)             32.6756         D2E/DX2 =    0.0258             !
 ! D7    D(6,1,3,5)            139.9303         D2E/DX2 =    0.0176             !
 ! D8    D(7,1,3,5)            -74.6332         D2E/DX2 =    0.0181             !
 ! D9    D(43,1,3,5)          -153.1987         D2E/DX2 =    0.0136             !
 ! D10   D(2,1,6,45)          -178.0443         D2E/DX2 =    0.0169             !
 ! D11   D(3,1,6,45)            70.706          D2E/DX2 =    0.0238             !
 ! D12   D(7,1,6,45)           -72.1141         D2E/DX2 =    0.019              !
 ! D13   D(43,1,6,45)           -1.9727         D2E/DX2 =    0.002              !
 ! D14   D(2,1,7,8)            103.3218         D2E/DX2 =    0.0149             !
 ! D15   D(2,1,7,9)            -15.8843         D2E/DX2 =    0.0153             !
 ! D16   D(2,1,7,10)          -138.1248         D2E/DX2 =    0.0153             !
 ! D17   D(3,1,7,8)           -145.5499         D2E/DX2 =    0.0155             !
 ! D18   D(3,1,7,9)             95.244          D2E/DX2 =    0.0157             !
 ! D19   D(3,1,7,10)           -26.9965         D2E/DX2 =    0.0158             !
 ! D20   D(6,1,7,8)             -2.3829         D2E/DX2 =    0.0114             !
 ! D21   D(6,1,7,9)           -121.589          D2E/DX2 =    0.0115             !
 ! D22   D(6,1,7,10)           116.1705         D2E/DX2 =    0.0121             !
 ! D23   D(43,1,7,8)           -67.2351         D2E/DX2 =    0.0109             !
 ! D24   D(43,1,7,9)           173.5589         D2E/DX2 =    0.0114             !
 ! D25   D(43,1,7,10)           51.3183         D2E/DX2 =    0.0111             !
 ! D26   D(3,1,43,44)          -12.1596         D2E/DX2 =    0.0153             !
 ! D27   D(3,1,43,45)         -117.5052         D2E/DX2 =    0.0183             !
 ! D28   D(6,1,43,44)          106.9436         D2E/DX2 =    0.0045             !
 ! D29   D(6,1,43,45)            1.598          D2E/DX2 =    0.0013             !
 ! D30   D(7,1,43,44)         -127.536          D2E/DX2 =    0.0078             !
 ! D31   D(7,1,43,45)          127.1184         D2E/DX2 =    0.0104             !
 ! D32   D(1,2,4,17)           -89.5418         D2E/DX2 =    0.0538             !
 ! D33   D(1,2,4,18)            40.1031         D2E/DX2 =    0.0231             !
 ! D34   D(1,2,4,19)           152.857          D2E/DX2 =    0.0325             !
 ! D35   D(1,3,5,11)           -58.8933         D2E/DX2 =    0.0235             !
 ! D36   D(1,3,5,12)          -174.8089         D2E/DX2 =    0.0251             !
 ! D37   D(1,3,5,13)            65.3754         D2E/DX2 =    0.0245             !
 ! D38   D(2,4,17,20)         -163.6382         D2E/DX2 =    0.0273             !
 ! D39   D(2,4,17,21)           71.7406         D2E/DX2 =    0.0344             !
 ! D40   D(2,4,17,22)          -50.0467         D2E/DX2 =    0.0194             !
 ! D41   D(18,4,17,20)          69.4003         D2E/DX2 =    0.0183             !
 ! D42   D(18,4,17,21)         -55.2209         D2E/DX2 =    0.0165             !
 ! D43   D(18,4,17,22)        -177.0081         D2E/DX2 =    0.024              !
 ! D44   D(19,4,17,20)         -49.002          D2E/DX2 =    0.0175             !
 ! D45   D(19,4,17,21)        -173.6232         D2E/DX2 =    0.0249             !
 ! D46   D(19,4,17,22)          64.5895         D2E/DX2 =    0.0159             !
 ! D47   D(3,5,13,14)          171.7436         D2E/DX2 =    0.0163             !
 ! D48   D(3,5,13,15)           52.6003         D2E/DX2 =    0.0173             !
 ! D49   D(3,5,13,16)          -69.3173         D2E/DX2 =    0.0176             !
 ! D50   D(11,5,13,14)         -65.9226         D2E/DX2 =    0.0156             !
 ! D51   D(11,5,13,15)         174.9341         D2E/DX2 =    0.0156             !
 ! D52   D(11,5,13,16)          53.0164         D2E/DX2 =    0.0164             !
 ! D53   D(12,5,13,14)          56.6044         D2E/DX2 =    0.0156             !
 ! D54   D(12,5,13,15)         -62.5389         D2E/DX2 =    0.0166             !
 ! D55   D(12,5,13,16)         175.5435         D2E/DX2 =    0.0158             !
 ! D56   D(1,6,45,43)            3.7985         D2E/DX2 =    0.0073             !
 ! D57   D(4,17,21,23)        -164.4519         D2E/DX2 =    0.0453             !
 ! D58   D(4,17,21,24)          64.9567         D2E/DX2 =    0.0394             !
 ! D59   D(20,17,21,23)         74.2744         D2E/DX2 =    0.035              !
 ! D60   D(20,17,21,24)        -56.317          D2E/DX2 =    0.0265             !
 ! D61   D(22,17,21,23)        -42.7883         D2E/DX2 =    0.0291             !
 ! D62   D(22,17,21,24)       -173.3797         D2E/DX2 =    0.0336             !
 ! D63   D(17,21,23,28)       -156.4703         D2E/DX2 =    0.0196             !
 ! D64   D(17,21,23,29)         87.3146         D2E/DX2 =    0.0249             !
 ! D65   D(17,21,23,30)        -37.6896         D2E/DX2 =    0.0273             !
 ! D66   D(24,21,23,28)        -25.9653         D2E/DX2 =    0.018              !
 ! D67   D(24,21,23,29)       -142.1805         D2E/DX2 =    0.0246             !
 ! D68   D(24,21,23,30)         92.8153         D2E/DX2 =    0.0309             !
 ! D69   D(17,21,24,25)       -156.7291         D2E/DX2 =    0.0298             !
 ! D70   D(17,21,24,26)         76.7409         D2E/DX2 =    0.0268             !
 ! D71   D(17,21,24,27)        -41.6836         D2E/DX2 =    0.0195             !
 ! D72   D(23,21,24,25)         73.4762         D2E/DX2 =    0.0298             !
 ! D73   D(23,21,24,26)        -53.0538         D2E/DX2 =    0.0273             !
 ! D74   D(23,21,24,27)       -171.4783         D2E/DX2 =    0.0219             !
 ! D75   D(21,23,29,37)       -177.2144         D2E/DX2 =    0.0212             !
 ! D76   D(21,23,29,38)         62.7973         D2E/DX2 =    0.0221             !
 ! D77   D(21,23,29,39)        -57.9199         D2E/DX2 =    0.0208             !
 ! D78   D(28,23,29,37)         67.2784         D2E/DX2 =    0.0136             !
 ! D79   D(28,23,29,38)        -52.7099         D2E/DX2 =    0.0136             !
 ! D80   D(28,23,29,39)       -173.4271         D2E/DX2 =    0.0136             !
 ! D81   D(30,23,29,37)        -48.8711         D2E/DX2 =    0.0185             !
 ! D82   D(30,23,29,38)       -168.8594         D2E/DX2 =    0.0195             !
 ! D83   D(30,23,29,39)         70.4234         D2E/DX2 =    0.0186             !
 ! D84   D(21,23,30,40)       -169.3588         D2E/DX2 =    0.0192             !
 ! D85   D(21,23,30,41)         72.3181         D2E/DX2 =    0.0193             !
 ! D86   D(21,23,30,42)        -49.5107         D2E/DX2 =    0.0186             !
 ! D87   D(28,23,30,40)        -51.1952         D2E/DX2 =    0.0133             !
 ! D88   D(28,23,30,41)       -169.5183         D2E/DX2 =    0.0139             !
 ! D89   D(28,23,30,42)         68.6529         D2E/DX2 =    0.0135             !
 ! D90   D(29,23,30,40)         64.9717         D2E/DX2 =    0.0178             !
 ! D91   D(29,23,30,41)        -53.3515         D2E/DX2 =    0.0183             !
 ! D92   D(29,23,30,42)       -175.1803         D2E/DX2 =    0.0185             !
 ! D93   D(21,24,25,31)         53.0997         D2E/DX2 =    0.0199             !
 ! D94   D(21,24,25,32)        -68.0326         D2E/DX2 =    0.0195             !
 ! D95   D(21,24,25,33)        172.7639         D2E/DX2 =    0.0207             !
 ! D96   D(26,24,25,31)       -177.6046         D2E/DX2 =    0.0189             !
 ! D97   D(26,24,25,32)         61.2631         D2E/DX2 =    0.0182             !
 ! D98   D(26,24,25,33)        -57.9405         D2E/DX2 =    0.018              !
 ! D99   D(27,24,25,31)        -61.5786         D2E/DX2 =    0.0135             !
 ! D100  D(27,24,25,32)        177.2891         D2E/DX2 =    0.0131             !
 ! D101  D(27,24,25,33)         58.0855         D2E/DX2 =    0.0133             !
 ! D102  D(21,24,26,34)        -54.3531         D2E/DX2 =    0.0187             !
 ! D103  D(21,24,26,35)       -173.5086         D2E/DX2 =    0.0189             !
 ! D104  D(21,24,26,36)         67.504          D2E/DX2 =    0.0185             !
 ! D105  D(25,24,26,34)        179.0044         D2E/DX2 =    0.018              !
 ! D106  D(25,24,26,35)         59.8489         D2E/DX2 =    0.0174             !
 ! D107  D(25,24,26,36)        -59.1385         D2E/DX2 =    0.0177             !
 ! D108  D(27,24,26,34)         63.3844         D2E/DX2 =    0.0134             !
 ! D109  D(27,24,26,35)        -55.7711         D2E/DX2 =    0.0136             !
 ! D110  D(27,24,26,36)       -174.7586         D2E/DX2 =    0.0138             !
 ! D111  D(1,43,45,6)           -3.1028         D2E/DX2 =    0.0049             !
 ! D112  D(44,43,45,6)        -101.2005         D2E/DX2 =    0.0095             !
 --------------------------------------------------------------------------------
 Trust Radius=3.00D-01 FncErr=1.00D-07 GrdErr=1.00D-06
 Number of steps in this run=    254 maximum allowed number of steps=    270.
 Search for a saddle point of order  1.
 GradGradGradGradGradGradGradGradGradGradGradGradGradGradGradGradGradGrad

 Leave Link  103 at Tue Nov  5 10:37:13 2019, MaxMem=  5898240000 cpu:         0.5
 (Enter /apps/gaussian/g09_d01/g09/l202.exe)
                          Input orientation:                          
 ---------------------------------------------------------------------
 Center     Atomic      Atomic             Coordinates (Angstroms)
 Number     Number       Type             X           Y           Z
 ---------------------------------------------------------------------
      1         15           0        1.980788   -0.109062    0.105348
      2         16           0        1.023201    0.610168    1.873390
      3          8           0        1.366580    0.761866   -1.088566
      4          6           0       -0.417823   -0.489625    2.161861
      5          6           0        0.945487    2.148721   -0.970787
      6          8           0        1.481071   -1.611266    0.160144
      7          6           0        3.682929    0.313685    0.515012
      8          1           0        4.183382   -0.609270    0.813746
      9          1           0        3.709278    1.024835    1.340601
     10          1           0        4.168501    0.721923   -0.368590
     11          1           0        0.174063    2.215011   -0.204477
     12          1           0        0.503397    2.362605   -1.942134
     13          6           0        2.110617    3.067891   -0.685273
     14          1           0        1.766348    4.102043   -0.753042
     15          1           0        2.908417    2.919601   -1.415750
     16          1           0        2.514558    2.916519    0.318849
     17          6           0       -1.737949   -0.097082    1.511310
     18          1           0       -0.110445   -1.508202    1.938177
     19          1           0       -0.547952   -0.423663    3.243875
     20          1           0       -2.511229   -0.685447    2.033570
     21          7           0       -1.814235   -0.260127    0.064567
     22          1           0       -1.933328    0.951650    1.748565
     23          6           0       -2.963537    0.474088   -0.520754
     24          6           0       -1.721163   -1.667508   -0.376621
     25          6           0       -1.236587   -1.749133   -1.823380
     26          6           0       -2.991780   -2.505012   -0.188317
     27          1           0       -0.942879   -2.122044    0.236579
     28          1           0       -3.192932   -0.022480   -1.465764
     29          6           0       -2.575281    1.913900   -0.845917
     30          6           0       -4.248507    0.469203    0.322196
     31          1           0       -0.308020   -1.188555   -1.953602
     32          1           0       -1.978419   -1.356891   -2.524560
     33          1           0       -1.049980   -2.791986   -2.093417
     34          1           0       -3.349037   -2.476988    0.843953
     35          1           0       -2.776687   -3.547561   -0.437009
     36          1           0       -3.797255   -2.165116   -0.845428
     37          1           0       -3.440072    2.461778   -1.230467
     38          1           0       -1.787272    1.945414   -1.599817
     39          1           0       -2.220942    2.435056    0.049190
     40          1           0       -5.069800    0.866586   -0.279392
     41          1           0       -4.147715    1.109056    1.203132
     42          1           0       -4.529157   -0.529955    0.656335
     43          8           0        2.948973   -1.188189   -1.574867
     44          1           0        2.519832   -0.893569   -2.384770
     45          1           0        2.004225   -1.909002   -0.695585
 ---------------------------------------------------------------------
                    Distance matrix (angstroms):
                    1          2          3          4          5
     1  P    0.000000
     2  S    2.135471   0.000000
     3  O    1.600374   2.985649   0.000000
     4  C    3.182360   1.835569   3.913515   0.000000
     5  C    2.706935   3.234582   1.454152   4.316592   0.000000
     6  O    1.584089   2.842468   2.684053   2.978380   3.962746
     7  C    1.801062   3.001207   2.852683   4.491502   3.615044
     8  H    2.367161   3.549171   3.665129   4.796125   4.612487
     9  H    2.408163   2.769625   3.385001   4.472250   3.774145
    10  H    2.387726   3.864178   2.893219   5.376374   3.575781
    11  H    2.959994   2.759364   2.077340   3.642107   1.089367
    12  H    3.533271   4.230774   2.008987   5.081992   1.088442
    13  C    3.276426   3.710745   2.456417   5.211056   1.511264
    14  H    4.303048   4.432110   3.380706   5.860945   2.129951
    15  H    3.513834   4.439139   2.672102   5.957012   2.155305
    16  H    3.079713   3.155946   2.818013   4.857713   2.171326
    17  C    3.975662   2.873196   4.139475   1.523168   4.290137
    18  H    3.112895   2.403507   4.061525   1.087205   4.790631
    19  H    4.042753   2.327135   4.882720   1.091805   5.158574
    20  H    4.922243   3.767821   5.184578   2.106455   5.385866
    21  N    3.798248   3.475672   3.534370   2.530075   3.806649
    22  H    4.375566   2.978801   4.355998   2.131864   4.137080
    23  C    5.017811   4.652368   4.376659   3.821757   4.276376
    24  C    4.045428   4.216858   3.992854   3.087069   4.693363
    25  C    4.094060   4.933462   3.690738   4.258976   4.547706
    26  C    5.527500   5.484073   5.520711   4.026211   6.145858
    27  H    3.552063   3.742941   3.925117   2.578214   4.823183
    28  H    5.407704   5.415345   4.641834   4.591200   4.699535
    29  C    5.074943   4.695042   4.113919   4.413422   3.530799
    30  C    6.259835   5.496997   5.796991   4.356358   5.609827
    31  H    3.262396   4.433218   2.712327   4.175835   3.697921
    32  H    4.914144   5.676355   4.211915   5.014992   4.822111
    33  H    4.606322   5.622125   4.413542   4.879331   5.445436
    34  H    5.878746   5.450389   6.038365   3.778692   6.567603
    35  H    5.894998   6.088005   6.013514   4.655033   6.825476
    36  H    6.206216   6.191201   5.940668   4.824066   6.412371
    37  H    6.146491   5.743100   5.100367   5.417810   4.404381
    38  H    4.618088   4.663132   3.407191   4.685619   2.811581
    39  H    4.912253   4.145164   4.118782   4.033408   3.338954
    40  H    7.128163   6.467215   6.487890   5.425856   6.189149
    41  H    6.344091   5.237987   5.981628   4.169777   5.634495
    42  H    6.546765   5.797395   6.282770   4.378505   6.308293
    43  O    2.219239   4.339719   2.557962   5.078036   3.938761
    44  H    2.665841   4.757421   2.398041   5.428153   3.705866
    45  H    1.970236   3.729378   2.773908   4.005740   4.202592
                    6          7          8          9         10
     6  O    0.000000
     7  C    2.946108   0.000000
     8  H    2.955279   1.091577   0.000000
     9  H    3.647933   1.089966   1.781193   0.000000
    10  H    3.598001   1.087745   1.780509   1.795543   0.000000
    11  H    4.059756   4.055225   5.008790   4.037516   4.267526
    12  H    4.600769   4.510550   5.474413   4.779503   4.312871
    13  C    4.796413   3.390944   4.479389   3.291498   3.136677
    14  H    5.792857   4.430903   5.522078   4.198515   4.164535
    15  H    5.004949   3.334442   4.364529   3.439329   2.741193
    16  H    4.646948   2.859776   3.932059   2.459634   2.832729
    17  C    3.805324   5.526958   5.984237   5.564182   6.252275
    18  H    2.388503   4.442337   4.528727   4.622084   5.348271
    19  H    3.877722   5.088293   5.322170   4.883093   6.050388
    20  H    4.506143   6.455376   6.805261   6.488449   7.236701
    21  N    3.562829   5.545356   6.054302   5.812795   6.078254
    22  H    4.555188   5.785413   6.381575   5.657808   6.462773
    23  C    4.956497   6.728600   7.350715   6.949419   7.137965
    24  C    3.247396   5.824461   6.115594   6.299782   6.355909
    25  C    3.367349   5.824512   6.134312   6.493632   6.118619
    26  C    4.574560   7.279524   7.488719   7.726680   7.855904
    27  H    2.478360   5.235303   5.375886   5.724009   5.880525
    28  H    5.197511   7.163375   7.742770   7.524164   7.479880
    29  C    5.467444   6.601364   7.402729   6.713194   6.864928
    30  C    6.097759   7.935303   8.514779   8.041903   8.449086
    31  H    2.801331   4.927318   5.307210   5.647083   5.118733
    32  H    4.386389   6.639328   7.047766   7.277498   6.837711
    33  H    3.588712   6.232938   6.372120   7.000795   6.523428
    34  H    4.954494   7.572623   7.760581   7.894887   8.259338
    35  H    4.715329   7.585658   7.657708   8.132309   8.152840
    36  H    5.401726   7.996775   8.298438   8.444083   8.486202
    37  H    6.537671   7.641868   8.469191   7.732296   7.852408
    38  H    5.140963   6.087540   6.928232   6.301237   6.203554
    39  H    5.485429   6.290700   7.132169   6.230889   6.628299
    40  H    7.017610   8.806080   9.433688   8.928696   9.239863
    41  H    6.338076   7.900957   8.515365   7.858647   8.472286
    42  H    6.126849   8.256517   8.714322   8.411742   8.846859
    43  O    2.311709   2.676175   2.750343   3.738381   2.567271
    44  H    2.840898   3.349477   3.616453   4.355852   3.064785
    45  H    1.046236   3.037093   2.952305   3.957355   3.422394
                   11         12         13         14         15
    11  H    0.000000
    12  H    1.774738   0.000000
    13  C    2.169979   2.158769   0.000000
    14  H    2.529265   2.456548   1.092055   0.000000
    15  H    3.072511   2.524172   1.091821   1.772477   0.000000
    16  H    2.498780   3.076302   1.092860   1.764720   1.778755
    17  C    3.456226   4.795829   5.445502   5.919463   6.265523
    18  H    4.305140   5.515139   5.723306   6.499220   6.322008
    19  H    4.401708   5.980243   5.890427   6.466323   6.695969
    20  H    4.542280   5.846778   6.545312   6.998780   7.366596
    21  N    3.186224   4.034475   5.200233   5.702419   5.882640
    22  H    3.138718   4.642163   5.172575   5.465401   6.109682
    23  C    3.602135   4.196004   5.701045   5.965553   6.423503
    24  C    4.323826   4.862233   6.099328   6.752195   6.599573
    25  C    4.508350   4.466323   5.975181   6.663295   6.256540
    26  C    5.683436   6.243864   7.572230   8.161609   8.108350
    27  H    4.500237   5.191395   6.091721   6.859921   6.555978
    28  H    4.234839   4.424749   6.187664   6.489539   6.773832
    29  C    2.839191   3.298680   4.828575   4.862750   5.604203
    30  C    4.783759   5.593992   6.943099   7.108596   7.761859
    31  H    3.856956   3.642701   5.057252   5.808164   5.245160
    32  H    4.772258   4.509244   6.299356   6.852847   6.587792
    33  H    5.489663   5.385691   6.805174   7.566765   6.982146
    34  H    5.960394   6.784187   7.930450   8.485353   8.566514
    35  H    6.478289   6.924912   8.228705   8.902555   8.666171
    36  H    5.947075   6.340239   7.893856   8.380900   8.434788
    37  H    3.765039   4.008398   5.610237   5.479527   6.367672
    38  H    2.422084   2.353380   4.158111   4.242204   4.799210
    39  H    2.418432   3.375299   4.438729   4.395555   5.356413
    40  H    5.414975   6.005273   7.521227   7.577957   8.316136
    41  H    4.677848   5.752993   6.824209   6.910914   7.741164
    42  H    5.513267   6.359681   7.670137   7.941985   8.456387
    43  O    4.599986   4.327108   4.428142   5.482751   4.111070
    44  H    4.463136   3.855464   4.330002   5.309088   3.953513
    45  H    4.538521   4.696062   4.978041   6.016025   4.965038
                   16         17         18         19         20
    16  H    0.000000
    17  C    5.346735   0.000000
    18  H    5.393609   2.195961   0.000000
    19  H    5.393659   2.127094   1.752851   0.000000
    20  H    6.416616   1.103127   2.539643   2.321169   0.000000
    21  N    5.375332   1.457899   2.823297   3.426108   2.131588
    22  H    5.068381   1.092842   3.067528   2.459005   1.759342
    23  C    6.056395   2.440817   4.256284   4.562175   2.841421
    24  C    6.279993   2.455770   2.824550   4.003944   2.719866
    25  C    6.358344   3.755102   3.933898   5.282817   4.199071
    26  C    7.744028   3.202959   3.717216   4.699388   2.911791
    27  H    6.111281   2.521418   1.991277   3.476247   2.784368
    28  H    6.663182   3.314440   4.826583   5.416416   3.626235
    29  C    5.316802   3.209626   5.053452   5.128417   3.879711
    30  C    7.192246   2.835061   4.862620   4.798700   2.698175
    31  H    5.475639   3.904053   3.909879   5.258935   4.583098
    32  H    6.821572   4.234760   4.840272   6.015978   4.638024
    33  H    7.149265   4.553006   4.334117   5.860688   4.858474
    34  H    7.984197   2.950410   3.553076   4.221593   2.307971
    35  H    8.387665   4.096428   4.112096   5.317415   3.790240
    36  H    8.186424   3.751229   4.666107   5.505727   3.483089
    37  H    6.169667   4.118535   6.073505   6.058867   4.628359
    38  H    4.809373   3.722007   5.220786   5.532611   4.543902
    39  H    4.767545   2.963580   4.855075   4.601867   3.709389
    40  H    7.879251   3.903395   5.928948   5.875820   3.782179
    41  H    6.959509   2.712326   4.867225   4.412726   2.566701
    42  H    7.848949   2.951136   4.703733   4.749385   2.448058
    43  O    4.541311   5.716839   4.669467   6.002771   6.564097
    44  H    4.671869   5.826022   5.097450   6.427578   6.699001
    45  H    4.957335   4.707156   3.401349   4.923331   5.416152
                   21         22         23         24         25
    21  N    0.000000
    22  H    2.078085   0.000000
    23  C    1.484105   2.537559   0.000000
    24  C    1.477846   3.379559   2.480061   0.000000
    25  C    2.472885   4.531939   3.101920   1.527935   0.000000
    26  C    2.547562   4.101261   2.997724   1.533408   2.515052
    27  H    2.062906   3.565766   3.375872   1.090111   2.113943
    28  H    2.073449   3.587121   1.091900   2.461392   2.633724
    29  C    2.476806   2.840663   1.526280   3.711636   4.020615
    30  C    2.554207   2.761763   1.536794   3.382506   4.312327
    31  H    2.683965   4.574729   3.445172   2.170999   1.092448
    32  H    2.816634   4.857056   2.887591   2.185475   1.093536
    33  H    3.413398   5.436537   4.099050   2.159241   1.093290
    34  H    2.806694   3.818130   3.274124   2.189757   3.479495
    35  H    3.461952   5.072562   4.026858   2.156937   2.743770
    36  H    2.896453   4.462875   2.786736   2.185761   2.772445
    37  H    3.424796   3.664068   2.163721   4.553537   4.789432
    38  H    2.763207   3.495792   2.170893   3.814942   3.742046
    39  H    2.725740   2.274003   2.172942   4.154771   4.688594
    40  H    3.462151   3.735947   2.156073   4.200530   4.890747
    41  H    2.935323   2.285997   2.185690   4.011618   5.079732
    42  H    2.791738   3.182208   2.201092   3.200915   4.298418
    43  O    5.122225   6.281797   6.231541   4.845174   4.230287
    44  H    5.018430   6.349798   5.950830   4.755805   3.893306
    45  H    4.228151   5.446240   5.512563   3.746809   3.435163
                   26         27         28         29         30
    26  C    0.000000
    27  H    2.127251   0.000000
    28  H    2.799160   3.516941   0.000000
    29  C    4.486947   4.486132   2.124917   0.000000
    30  C    3.268935   4.201079   2.133727   2.500265   0.000000
    31  H    3.471579   2.464009   3.149672   3.999083   4.843021
    32  H    2.793405   3.046586   2.092067   3.724535   4.073320
    33  H    2.735388   2.426761   3.557577   5.101780   5.167311
    34  H    1.092703   2.506888   3.373985   4.768046   3.124311
    35  H    1.093170   2.418403   3.695645   5.480449   4.344771
    36  H    1.093670   3.052877   2.311041   4.258120   2.916609
    37  H    5.094707   5.422141   2.507584   1.093578   2.652298
    38  H    4.821770   4.541978   2.422077   1.091016   3.454129
    39  H    5.005484   4.736636   3.046199   1.094704   2.837275
    40  H    3.961582   5.121485   2.391767   2.764135   1.092860
    41  H    4.041509   4.652441   3.052047   2.705351   1.093443
    42  H    2.641555   3.946180   2.558580   3.470853   1.090289
    43  O    6.240921   4.393169   6.252501   6.377437   7.625582
    44  H    6.148091   4.513423   5.851413   6.017485   7.415876
    45  H    5.056938   3.098345   5.582345   5.967333   6.766712
                   31         32         33         34         35
    31  H    0.000000
    32  H    1.773291   0.000000
    33  H    1.772299   1.762776   0.000000
    34  H    4.328298   3.805272   3.743398   0.000000
    35  H    3.736212   3.129558   2.509203   1.764816   0.000000
    36  H    3.788995   2.604012   3.081877   1.775436   1.766216
    37  H    4.863909   4.288746   5.836031   5.357510   6.097688
    38  H    3.483549   3.434662   4.819771   5.288550   5.701213
    39  H    4.560812   4.589321   5.769218   5.102198   6.028013
    40  H    5.449875   4.420551   5.730165   3.924591   4.976736
    41  H    5.476061   4.968141   5.973384   3.691423   5.123852
    42  H    5.006349   4.160310   4.978212   2.284474   3.656842
    43  O    3.278939   5.020913   4.339664   6.868525   6.296391
    44  H    2.875703   4.524209   4.053693   6.882986   6.236229
    45  H    2.729126   4.417174   3.473005   5.599126   5.060520
                   36         37         38         39         40
    36  H    0.000000
    37  H    4.656606   0.000000
    38  H    4.637412   1.770537   0.000000
    39  H    4.944359   1.767630   1.773990   0.000000
    40  H    3.336313   2.470868   3.698970   3.268647   0.000000
    41  H    3.878094   2.872807   3.758684   2.608125   1.762642
    42  H    2.337674   3.700891   4.328465   3.806281   1.765844
    43  O    6.855513   7.366191   5.679094   6.518703   8.378608
    44  H    6.625103   6.936226   5.217961   6.283219   8.070519
    45  H    5.809064   7.002156   5.481753   6.105536   7.610449
                   41         42         43         44         45
    41  H    0.000000
    42  H    1.769418   0.000000
    43  O    7.959748   7.831600   0.000000
    44  H    7.831969   7.685622   0.962759   0.000000
    45  H    7.110568   6.812822   1.478261   2.037228   0.000000
 Stoichiometry    C11H28NO3PS
 Framework group  C1[X(C11H28NO3PS)]
 Deg. of freedom   129
 Full point group                 C1      NOp   1
 RotChk:  IX=0 Diff= 6.36D-16
 Largest Abelian subgroup         C1      NOp   1
 Largest concise Abelian subgroup C1      NOp   1
                         Standard orientation:                         
 ---------------------------------------------------------------------
 Center     Atomic      Atomic             Coordinates (Angstroms)
 Number     Number       Type             X           Y           Z
 ---------------------------------------------------------------------
      1         15           0        1.965681   -0.483965    0.140939
      2         16           0        1.133962    0.481932    1.854277
      3          8           0        1.521331    0.416240   -1.105407
      4          6           0       -0.478378   -0.335187    2.173636
      5          6           0        1.346644    1.859286   -1.064659
      6          8           0        1.212214   -1.872035    0.262943
      7          6           0        3.712164   -0.341278    0.557186
      8          1           0        4.042366   -1.319947    0.910332
      9          1           0        3.855266    0.396916    1.346246
     10          1           0        4.268074   -0.070186   -0.337613
     11          1           0        0.592568    2.098214   -0.315657
     12          1           0        0.955941    2.095174   -2.052795
     13          6           0        2.651485    2.576635   -0.806356
     14          1           0        2.492619    3.649759   -0.931852
     15          1           0        3.417015    2.254375   -1.515006
     16          1           0        3.015226    2.410551    0.210723
     17          6           0       -1.705186    0.245213    1.482177
     18          1           0       -0.350885   -1.401906    2.006688
     19          1           0       -0.603421   -0.191001    3.248630
     20          1           0       -2.572921   -0.172207    2.020402
     21          7           0       -1.797461    0.022127    0.044405
     22          1           0       -1.717252    1.322919    1.663029
     23          6           0       -2.797201    0.912425   -0.596265
     24          6           0       -1.946867   -1.401310   -0.323746
     25          6           0       -1.472681   -1.641389   -1.756260
     26          6           0       -3.345062   -1.995214   -0.114771
     27          1           0       -1.264128   -1.950865    0.324482
     28          1           0       -3.102061    0.414147   -1.518775
     29          6           0       -2.162248    2.244232   -0.986976
     30          6           0       -4.069955    1.174252    0.224271
     31          1           0       -0.459878   -1.257597   -1.899007
     32          1           0       -2.129665   -1.164027   -2.488598
     33          1           0       -1.467979   -2.713514   -1.970291
     34          1           0       -3.699980   -1.851643    0.908664
     35          1           0       -3.312420   -3.070850   -0.307027
     36          1           0       -4.074153   -1.556007   -0.801531
     37          1           0       -2.915729    2.912562   -1.413021
     38          1           0       -1.374947    2.099276   -1.728233
     39          1           0       -1.729691    2.742448   -0.113448
     40          1           0       -4.805066    1.675650   -0.410201
     41          1           0       -3.866356    1.832346    1.073435
     42          1           0       -4.522468    0.257680    0.603557
     43          8           0        2.744642   -1.801048   -1.466397
     44          1           0        2.379468   -1.479523   -2.297165
     45          1           0        1.682289   -2.300318   -0.567848
 ---------------------------------------------------------------------
 Rotational constants (GHZ):      0.5409429      0.2703283      0.2498634
 Leave Link  202 at Tue Nov  5 10:37:13 2019, MaxMem=  5898240000 cpu:         0.1
 (Enter /apps/gaussian/g09_d01/g09/l301.exe)
 Standard basis: 6-311++G(d,p) (5D, 7F)
 Ernie: Thresh=  0.10000D-02 Tol=  0.10000D-05 Strict=F.
 There are   603 symmetry adapted cartesian basis functions of A   symmetry.
 There are   586 symmetry adapted basis functions of A   symmetry.
   586 basis functions,   892 primitive gaussians,   603 cartesian basis functions
    78 alpha electrons       78 beta electrons
       nuclear repulsion energy      1825.6634114664 Hartrees.
 IExCor= 4336 DFT=T Ex+Corr=M062X ExCW=0 ScaHFX=  0.540000
 ScaDFX=  1.000000  1.000000  1.000000  1.000000 ScalE2=  1.000000  1.000000
 IRadAn=      5 IRanWt=     -1 IRanGd=            0 ICorTp=0 IEmpDi=  4
 NAtoms=   45 NActive=   45 NUniq=   45 SFac= 1.00D+00 NAtFMM=   60 NAOKFM=F Big=F
 Integral buffers will be    131072 words long.
 Raffenetti 2 integral format.
 Two-electron integral symmetry is turned on.
 ------------------------------------------------------------------------------
 Polarizable Continuum Model (PCM)
 =================================
 Model                : PCM (using non-symmetric T matrix).
 Atomic radii         : SMD-Coulomb.
 Polarization charges : Total charges.
 Charge compensation  : None.
 Solution method      : On-the-fly selection.
 Cavity type          : VdW (van der Waals Surface) (Alpha=1.000).
 Cavity algorithm     : GePol (No added spheres)
                        Default sphere list used, NSphG=   45.
                        Lebedev-Laikov grids with approx.  5.0 points / Ang**2.
                        Smoothing algorithm: Karplus/York (Gamma=1.0000).
                        Polarization charges: spherical gaussians, with
                                              point-specific exponents (IZeta= 3).
                        Self-potential: point-specific (ISelfS= 7).
                        Self-field    : sphere-specific E.n sum rule (ISelfD= 2).
 1st derivatives      : Analytical E(r).r(x)/FMM algorithm (CHGder, D1EAlg=3).
                        Cavity 1st derivative terms included.
 Solvent              : Water, Eps=  78.355300 Eps(inf)=   1.777849
 ------------------------------------------------------------------------------
 GePol: Number of generator spheres                  =      45
 GePol: Total number of spheres                      =      45
 GePol: Number of exposed spheres                    =      45 (100.00%)
 GePol: Number of points                             =    2885
 GePol: Average weight of points                     =       0.11
 GePol: Minimum weight of points                     =   0.22D-09
 GePol: Maximum weight of points                     =    0.21991
 GePol: Number of points with low weight             =     209
 GePol: Fraction of low-weight points (<1% of avg)   =       7.24%
 GePol: Cavity surface area                          =    326.801 Ang**2
 GePol: Cavity volume                                =    313.052 Ang**3
 ------------------------------------------------------------------------------
 Atomic radii for non-electrostatic terms: SMD-CDS.
 ------------------------------------------------------------------------------
 PCM non-electrostatic energy =         0.0122836218 Hartrees.
 Nuclear repulsion after PCM non-electrostatic terms =     1825.6756950882 Hartrees.
 Leave Link  301 at Tue Nov  5 10:37:13 2019, MaxMem=  5898240000 cpu:         1.0
 (Enter /apps/gaussian/g09_d01/g09/l302.exe)
 NPDir=0 NMtPBC=     1 NCelOv=     1 NCel=       1 NClECP=     1 NCelD=      1
         NCelK=      1 NCelE2=     1 NClLst=     1 CellRange=     0.0.
 One-electron integrals computed using PRISM.
 NBasis=   586 RedAO= T EigKep=  4.49D-06  NBF=   586
 NBsUse=   586 1.00D-06 EigRej= -1.00D+00 NBFU=   586
 Precomputing XC quadrature grid using
 IXCGrd= 4 IRadAn=           5 IRanWt=          -1 IRanGd=           0 AccXCQ= 0.00D+00.
 Generated NRdTot=       0 NPtTot=           0 NUsed=           0 NTot=          32
 NSgBfM=   599   599   599   599   599 MxSgAt=    45 MxSgA2=    45.
 Leave Link  302 at Tue Nov  5 10:37:14 2019, MaxMem=  5898240000 cpu:        14.3
 (Enter /apps/gaussian/g09_d01/g09/l303.exe)
 DipDrv:  MaxL=1.
 Leave Link  303 at Tue Nov  5 10:37:14 2019, MaxMem=  5898240000 cpu:         1.2
 (Enter /apps/gaussian/g09_d01/g09/l401.exe)
 Initial guess from the checkpoint file:  "TS1b_sp.chk"
 B after Tr=     0.000000    0.000000    0.000000
         Rot=    1.000000    0.000000    0.000000    0.000000 Ang=   0.00 deg.
 Guess basis will be translated and rotated to current coordinates.
 JPrj=2 DoOrth=T DoCkMO=T.
 Leave Link  401 at Tue Nov  5 10:37:15 2019, MaxMem=  5898240000 cpu:        12.9
 (Enter /apps/gaussian/g09_d01/g09/l502.exe)
 Closed shell SCF:
 Using DIIS extrapolation, IDIIS=  1040.
 Integral symmetry usage will be decided dynamically.
 IVT=     1121163 IEndB=     1121163 NGot=  5898240000 MDV=  5897499690
 LenX=  5897499690 LenY=  5897135478
 Requested convergence on RMS density matrix=1.00D-09 within 128 cycles.
 Requested convergence on MAX density matrix=1.00D-07.
 Requested convergence on             energy=1.00D-07.
 No special actions if energy rises.
 Fock matrices will be formed incrementally for  20 cycles.

 Cycle   1  Pass 1  IDiag  1:
 FoFJK:  IHMeth= 1 ICntrl=       0 DoSepK=F KAlg= 0 I1Cent=   0 FoldK=F
 IRaf= 870000000 NMat=   1 IRICut=       1 DoRegI=T DoRafI=F ISym2E= 0.
 FoFCou: FMM=F IPFlag=           0 FMFlag=      100000 FMFlg1=           0
         NFxFlg=           0 DoJE=F BraDBF=F KetDBF=F FulRan=T
         wScrn=  0.000000 ICntrl=       0 IOpCl=  0 I1Cent=           0 NGrid=           0
         NMat0=    1 NMatS0=      1 NMatT0=    0 NMatD0=    1 NMtDS0=    0 NMtDT0=    0
 Symmetry not used in FoFCou.
 Inv3:  Mode=1 IEnd=    24969675.
 Iteration    1 A*A^-1 deviation from unit magnitude is 7.33D-15 for   2876.
 Iteration    1 A*A^-1 deviation from orthogonality  is 2.87D-15 for   2152    208.
 Iteration    1 A^-1*A deviation from unit magnitude is 7.33D-15 for   2876.
 Iteration    1 A^-1*A deviation from orthogonality  is 2.75D-11 for   2875   2116.
 E= -1455.89324821244    
 DIIS: error= 2.24D-10 at cycle   1 NSaved=   1.
 NSaved= 1 IEnMin= 1 EnMin= -1455.89324821244     IErMin= 1 ErrMin= 2.24D-10
 ErrMax= 2.24D-10  0.00D+00 EMaxC= 1.00D-01 BMatC= 6.17D-17 BMatP= 6.17D-17
 IDIUse=1 WtCom= 1.00D+00 WtEn= 0.00D+00
 Coeff-Com:  0.100D+01
 Coeff:      0.100D+01
 Gap=     0.266 Goal=   None    Shift=    0.000
 RMSDP=3.58D-10 MaxDP=7.55D-08              OVMax= 2.18D-09

 Error on total polarization charges =  0.06799
 SCF Done:  E(RM062X) =  -1455.89324821     A.U. after    1 cycles
            NFock=  1  Conv=0.36D-09     -V/T= 2.0027
 KE= 1.451978858840D+03 PE=-7.081179356272D+03 EE= 2.347631554132D+03
 SMD-CDS (non-electrostatic) energy       (kcal/mol) =       7.71
 (included in total energy above)
 Leave Link  502 at Tue Nov  5 10:38:08 2019, MaxMem=  5898240000 cpu:       610.1
 (Enter /apps/gaussian/g09_d01/g09/l601.exe)
 Copying SCF densities to generalized density rwf, IOpCl= 0 IROHF=0.

 **********************************************************************

            Population analysis using the SCF density.

 **********************************************************************

 Orbital symmetries:
       Occupied  (A) (A) (A) (A) (A) (A) (A) (A) (A) (A) (A) (A)
                 (A) (A) (A) (A) (A) (A) (A) (A) (A) (A) (A) (A)
                 (A) (A) (A) (A) (A) (A) (A) (A) (A) (A) (A) (A)
                 (A) (A) (A) (A) (A) (A) (A) (A) (A) (A) (A) (A)
                 (A) (A) (A) (A) (A) (A) (A) (A) (A) (A) (A) (A)
                 (A) (A) (A) (A) (A) (A) (A) (A) (A) (A) (A) (A)
                 (A) (A) (A) (A) (A) (A)
       Virtual   (A) (A) (A) (A) (A) (A) (A) (A) (A) (A) (A) (A)
                 (A) (A) (A) (A) (A) (A) (A) (A) (A) (A) (A) (A)
                 (A) (A) (A) (A) (A) (A) (A) (A) (A) (A) (A) (A)
                 (A) (A) (A) (A) (A) (A) (A) (A) (A) (A) (A) (A)
                 (A) (A) (A) (A) (A) (A) (A) (A) (A) (A) (A) (A)
                 (A) (A) (A) (A) (A) (A) (A) (A) (A) (A) (A) (A)
                 (A) (A) (A) (A) (A) (A) (A) (A) (A) (A) (A) (A)
                 (A) (A) (A) (A) (A) (A) (A) (A) (A) (A) (A) (A)
                 (A) (A) (A) (A) (A) (A) (A) (A) (A) (A) (A) (A)
                 (A) (A) (A) (A) (A) (A) (A) (A) (A) (A) (A) (A)
                 (A) (A) (A) (A) (A) (A) (A) (A) (A) (A) (A) (A)
                 (A) (A) (A) (A) (A) (A) (A) (A) (A) (A) (A) (A)
                 (A) (A) (A) (A) (A) (A) (A) (A) (A) (A) (A) (A)
                 (A) (A) (A) (A) (A) (A) (A) (A) (A) (A) (A) (A)
                 (A) (A) (A) (A) (A) (A) (A) (A) (A) (A) (A) (A)
                 (A) (A) (A) (A) (A) (A) (A) (A) (A) (A) (A) (A)
                 (A) (A) (A) (A) (A) (A) (A) (A) (A) (A) (A) (A)
                 (A) (A) (A) (A) (A) (A) (A) (A) (A) (A) (A) (A)
                 (A) (A) (A) (A) (A) (A) (A) (A) (A) (A) (A) (A)
                 (A) (A) (A) (A) (A) (A) (A) (A) (A) (A) (A) (A)
                 (A) (A) (A) (A) (A) (A) (A) (A) (A) (A) (A) (A)
                 (A) (A) (A) (A) (A) (A) (A) (A) (A) (A) (A) (A)
                 (A) (A) (A) (A) (A) (A) (A) (A) (A) (A) (A) (A)
                 (A) (A) (A) (A) (A) (A) (A) (A) (A) (A) (A) (A)
                 (A) (A) (A) (A) (A) (A) (A) (A) (A) (A) (A) (A)
                 (A) (A) (A) (A) (A) (A) (A) (A) (A) (A) (A) (A)
                 (A) (A) (A) (A) (A) (A) (A) (A) (A) (A) (A) (A)
                 (A) (A) (A) (A) (A) (A) (A) (A) (A) (A) (A) (A)
                 (A) (A) (A) (A) (A) (A) (A) (A) (A) (A) (A) (A)
                 (A) (A) (A) (A) (A) (A) (A) (A) (A) (A) (A) (A)
                 (A) (A) (A) (A) (A) (A) (A) (A) (A) (A) (A) (A)
                 (A) (A) (A) (A) (A) (A) (A) (A) (A) (A) (A) (A)
                 (A) (A) (A) (A) (A) (A) (A) (A) (A) (A) (A) (A)
                 (A) (A) (A) (A) (A) (A) (A) (A) (A) (A) (A) (A)
                 (A) (A) (A) (A) (A) (A) (A) (A) (A) (A) (A) (A)
                 (A) (A) (A) (A) (A) (A) (A) (A) (A) (A) (A) (A)
                 (A) (A) (A) (A) (A) (A) (A) (A) (A) (A) (A) (A)
                 (A) (A) (A) (A) (A) (A) (A) (A) (A) (A) (A) (A)
                 (A) (A) (A) (A) (A) (A) (A) (A) (A) (A) (A) (A)
                 (A) (A) (A) (A) (A) (A) (A) (A) (A) (A) (A) (A)
                 (A) (A) (A) (A) (A) (A) (A) (A) (A) (A) (A) (A)
                 (A) (A) (A) (A) (A) (A) (A) (A) (A) (A) (A) (A)
                 (A) (A) (A) (A)
 The electronic state is 1-A.
 Alpha  occ. eigenvalues --  -89.88964 -78.17316 -19.66178 -19.64356 -19.56868
 Alpha  occ. eigenvalues --  -14.72659 -10.59515 -10.56444 -10.55507 -10.55498
 Alpha  occ. eigenvalues --  -10.55279 -10.54708 -10.52572 -10.51064 -10.51053
 Alpha  occ. eigenvalues --  -10.51042 -10.51034  -8.25628  -6.98219  -6.17748
 Alpha  occ. eigenvalues --   -6.17502  -6.17176  -5.10041  -5.10015  -5.09795
 Alpha  occ. eigenvalues --   -1.20354  -1.16225  -1.04022  -1.02342  -0.89516
 Alpha  occ. eigenvalues --   -0.87513  -0.86829  -0.84855  -0.82736  -0.77736
 Alpha  occ. eigenvalues --   -0.76720  -0.75986  -0.73834  -0.69545  -0.67652
 Alpha  occ. eigenvalues --   -0.64427  -0.61223  -0.60047  -0.57933  -0.56709
 Alpha  occ. eigenvalues --   -0.55449  -0.54538  -0.53765  -0.52649  -0.51009
 Alpha  occ. eigenvalues --   -0.50063  -0.49677  -0.49289  -0.48500  -0.48092
 Alpha  occ. eigenvalues --   -0.47055  -0.46499  -0.45978  -0.45590  -0.44330
 Alpha  occ. eigenvalues --   -0.44182  -0.43396  -0.43200  -0.43012  -0.42416
 Alpha  occ. eigenvalues --   -0.41005  -0.40595  -0.40242  -0.39786  -0.38620
 Alpha  occ. eigenvalues --   -0.38321  -0.36906  -0.36545  -0.35995  -0.34636
 Alpha  occ. eigenvalues --   -0.34089  -0.30356  -0.26593
 Alpha virt. eigenvalues --    0.00015   0.00872   0.00935   0.01080   0.02230
 Alpha virt. eigenvalues --    0.02488   0.02769   0.03027   0.03156   0.04021
 Alpha virt. eigenvalues --    0.04311   0.04593   0.04979   0.05097   0.05419
 Alpha virt. eigenvalues --    0.05799   0.05995   0.06426   0.06689   0.07065
 Alpha virt. eigenvalues --    0.07477   0.07614   0.08157   0.08319   0.08933
 Alpha virt. eigenvalues --    0.08980   0.09480   0.09560   0.09868   0.10436
 Alpha virt. eigenvalues --    0.10886   0.11188   0.11503   0.11633   0.11882
 Alpha virt. eigenvalues --    0.12249   0.12482   0.12972   0.13151   0.13587
 Alpha virt. eigenvalues --    0.13733   0.13921   0.14152   0.14361   0.14702
 Alpha virt. eigenvalues --    0.15085   0.15418   0.15513   0.15783   0.15959
 Alpha virt. eigenvalues --    0.16185   0.16488   0.16836   0.16993   0.17074
 Alpha virt. eigenvalues --    0.17342   0.17606   0.17637   0.17812   0.18195
 Alpha virt. eigenvalues --    0.18472   0.18554   0.18631   0.18765   0.19215
 Alpha virt. eigenvalues --    0.19348   0.19597   0.19802   0.19939   0.20320
 Alpha virt. eigenvalues --    0.20805   0.21326   0.21688   0.21922   0.22224
 Alpha virt. eigenvalues --    0.22386   0.22538   0.23091   0.23422   0.23524
 Alpha virt. eigenvalues --    0.23725   0.24027   0.24379   0.24413   0.24592
 Alpha virt. eigenvalues --    0.24786   0.25428   0.25761   0.26129   0.26661
 Alpha virt. eigenvalues --    0.27165   0.27460   0.27990   0.28084   0.28812
 Alpha virt. eigenvalues --    0.29010   0.29521   0.29751   0.30234   0.30422
 Alpha virt. eigenvalues --    0.30786   0.30914   0.31351   0.31711   0.31902
 Alpha virt. eigenvalues --    0.32147   0.32734   0.33040   0.33249   0.33592
 Alpha virt. eigenvalues --    0.34173   0.34539   0.35012   0.35099   0.35982
 Alpha virt. eigenvalues --    0.36406   0.36702   0.36940   0.37339   0.38006
 Alpha virt. eigenvalues --    0.38220   0.38536   0.38860   0.39035   0.39161
 Alpha virt. eigenvalues --    0.39704   0.39798   0.40245   0.40780   0.41234
 Alpha virt. eigenvalues --    0.42423   0.42971   0.43312   0.43673   0.44767
 Alpha virt. eigenvalues --    0.44979   0.45303   0.46353   0.47141   0.47753
 Alpha virt. eigenvalues --    0.48516   0.49257   0.49828   0.51074   0.52371
 Alpha virt. eigenvalues --    0.52654   0.52974   0.53447   0.53839   0.54508
 Alpha virt. eigenvalues --    0.56400   0.57078   0.58369   0.58811   0.59835
 Alpha virt. eigenvalues --    0.59953   0.60956   0.61387   0.62272   0.62943
 Alpha virt. eigenvalues --    0.63606   0.63987   0.65568   0.65837   0.66242
 Alpha virt. eigenvalues --    0.66946   0.67338   0.68056   0.68524   0.68878
 Alpha virt. eigenvalues --    0.69194   0.69919   0.70419   0.71134   0.72132
 Alpha virt. eigenvalues --    0.72527   0.73088   0.74056   0.74643   0.75178
 Alpha virt. eigenvalues --    0.75302   0.75947   0.76124   0.76417   0.76997
 Alpha virt. eigenvalues --    0.77449   0.78176   0.78452   0.78791   0.79831
 Alpha virt. eigenvalues --    0.80742   0.81146   0.81861   0.82090   0.82841
 Alpha virt. eigenvalues --    0.83183   0.83904   0.84292   0.84570   0.85299
 Alpha virt. eigenvalues --    0.86283   0.86597   0.86736   0.87450   0.88198
 Alpha virt. eigenvalues --    0.89145   0.89761   0.91010   0.91483   0.92796
 Alpha virt. eigenvalues --    0.93777   0.94780   0.96367   0.97292   0.97623
 Alpha virt. eigenvalues --    0.99351   0.99825   1.00732   1.01779   1.02636
 Alpha virt. eigenvalues --    1.03522   1.04520   1.05593   1.07076   1.07376
 Alpha virt. eigenvalues --    1.09324   1.09724   1.11233   1.13114   1.14283
 Alpha virt. eigenvalues --    1.15764   1.17029   1.17358   1.19497   1.19843
 Alpha virt. eigenvalues --    1.21689   1.22140   1.23845   1.24653   1.26115
 Alpha virt. eigenvalues --    1.26571   1.27792   1.29512   1.30422   1.32927
 Alpha virt. eigenvalues --    1.33340   1.34925   1.35387   1.35492   1.37965
 Alpha virt. eigenvalues --    1.39203   1.40324   1.41815   1.44074   1.45124
 Alpha virt. eigenvalues --    1.46803   1.48432   1.49338   1.50323   1.51457
 Alpha virt. eigenvalues --    1.52754   1.52876   1.53682   1.54724   1.55233
 Alpha virt. eigenvalues --    1.55789   1.56877   1.57137   1.57793   1.59186
 Alpha virt. eigenvalues --    1.59796   1.60768   1.62146   1.62347   1.63047
 Alpha virt. eigenvalues --    1.64281   1.64551   1.65076   1.65885   1.66426
 Alpha virt. eigenvalues --    1.66634   1.67278   1.67435   1.68072   1.68292
 Alpha virt. eigenvalues --    1.68993   1.69963   1.70546   1.70850   1.71526
 Alpha virt. eigenvalues --    1.71842   1.72737   1.73623   1.73974   1.74648
 Alpha virt. eigenvalues --    1.75435   1.76079   1.76851   1.77440   1.78046
 Alpha virt. eigenvalues --    1.78581   1.79782   1.80278   1.80723   1.82493
 Alpha virt. eigenvalues --    1.82891   1.83350   1.84255   1.85204   1.85721
 Alpha virt. eigenvalues --    1.85903   1.87130   1.88157   1.88397   1.89243
 Alpha virt. eigenvalues --    1.89460   1.90546   1.91087   1.92217   1.93017
 Alpha virt. eigenvalues --    1.93485   1.94492   1.96563   1.96932   1.99731
 Alpha virt. eigenvalues --    2.00388   2.01210   2.02343   2.03758   2.04397
 Alpha virt. eigenvalues --    2.06526   2.07131   2.08004   2.09457   2.10851
 Alpha virt. eigenvalues --    2.13132   2.13831   2.14077   2.15528   2.16187
 Alpha virt. eigenvalues --    2.17619   2.19113   2.20453   2.20734   2.22546
 Alpha virt. eigenvalues --    2.23219   2.23904   2.24387   2.25150   2.26972
 Alpha virt. eigenvalues --    2.27930   2.30518   2.30710   2.31813   2.33454
 Alpha virt. eigenvalues --    2.34475   2.35941   2.38061   2.39237   2.41007
 Alpha virt. eigenvalues --    2.41642   2.43225   2.45430   2.47107   2.53594
 Alpha virt. eigenvalues --    2.54748   2.54817   2.55618   2.56223   2.56268
 Alpha virt. eigenvalues --    2.57220   2.57573   2.58510   2.59125   2.59200
 Alpha virt. eigenvalues --    2.60473   2.60724   2.61128   2.61725   2.62607
 Alpha virt. eigenvalues --    2.63412   2.64115   2.64833   2.65246   2.67294
 Alpha virt. eigenvalues --    2.67848   2.68726   2.69631   2.70274   2.70553
 Alpha virt. eigenvalues --    2.71890   2.72080   2.72442   2.73208   2.74662
 Alpha virt. eigenvalues --    2.75412   2.75807   2.76528   2.77963   2.78325
 Alpha virt. eigenvalues --    2.79477   2.81474   2.82684   2.83086   2.85050
 Alpha virt. eigenvalues --    2.86167   2.86411   2.88266   2.88822   2.92423
 Alpha virt. eigenvalues --    2.93881   2.95187   2.96401   2.96941   2.97902
 Alpha virt. eigenvalues --    2.99274   2.99960   3.00821   3.03779   3.04192
 Alpha virt. eigenvalues --    3.05608   3.07189   3.08413   3.09506   3.10265
 Alpha virt. eigenvalues --    3.12867   3.13538   3.16267   3.17455   3.19034
 Alpha virt. eigenvalues --    3.19524   3.23017   3.24161   3.26110   3.28636
 Alpha virt. eigenvalues --    3.30683   3.32341   3.35328   3.39877   3.44564
 Alpha virt. eigenvalues --    3.46753   3.47859   3.49390   3.60554   3.68695
 Alpha virt. eigenvalues --    3.75384   3.78103   3.80773   3.82362   3.82923
 Alpha virt. eigenvalues --    3.84073   3.85082   3.85511   3.86396   3.87117
 Alpha virt. eigenvalues --    3.87286   3.89648   3.90458   3.91390   3.92062
 Alpha virt. eigenvalues --    3.92382   3.92794   3.94853   3.98990   4.08525
 Alpha virt. eigenvalues --    4.16314   4.17824   4.19893   4.30056   4.33529
 Alpha virt. eigenvalues --    4.34897   4.49053   4.97848   4.99028   5.25525
 Alpha virt. eigenvalues --    5.26764   5.27058   5.29229   5.30365   5.33485
 Alpha virt. eigenvalues --    5.54284   5.63715   5.72447   7.44340   8.21096
 Alpha virt. eigenvalues --   14.21545  14.24765  14.27805  17.61837  17.71494
 Alpha virt. eigenvalues --   17.74001  23.91999  23.96104  23.97870  23.98309
 Alpha virt. eigenvalues --   24.03587  24.05374  24.08766  24.09464  24.09937
 Alpha virt. eigenvalues --   24.11782  24.13638  35.69086  50.05070  50.06117
 Alpha virt. eigenvalues --   50.12302 163.74357 189.54607
          Condensed to atoms (all electrons):
               1          2          3          4          5          6
     1  P   21.192938  -0.434095  -0.522716  -0.099306  -0.314055  -0.617190
     2  S   -0.434095  16.818069  -0.024549  -0.228405   0.201759  -0.053729
     3  O   -0.522716  -0.024549   8.722072   0.152751  -0.065409   0.087631
     4  C   -0.099306  -0.228405   0.152751  11.519864  -0.255114   0.063518
     5  C   -0.314055   0.201759  -0.065409  -0.255114   6.664335   0.043690
     6  O   -0.617190  -0.053729   0.087631   0.063518   0.043690   8.704443
     7  C   -2.141658  -0.046538  -0.329973  -0.142003   0.051780  -0.158633
     8  H   -0.244755  -0.045693  -0.018241   0.014245  -0.005102  -0.002216
     9  H    0.149914  -0.004231   0.000968  -0.055587  -0.047429  -0.001444
    10  H   -0.377642   0.029690   0.023659  -0.017874  -0.035102  -0.039008
    11  H   -0.056960   0.041041  -0.042556   0.141369   0.413255   0.039573
    12  H   -0.008870  -0.002838  -0.032720  -0.002633   0.358756  -0.011321
    13  C   -0.292655  -0.163121   0.016774   0.035249  -0.928375  -0.062180
    14  H   -0.034054   0.003544   0.017807  -0.017802  -0.033204  -0.001021
    15  H   -0.030166   0.005851   0.008153   0.002050  -0.069301   0.000147
    16  H   -0.055318  -0.006755  -0.050498   0.028462   0.024486   0.005566
    17  C   -0.461358  -0.381524   0.050721  -4.693306   0.168016   0.042130
    18  H   -0.053488  -0.108336   0.022938   0.320606  -0.003747  -0.010115
    19  H   -0.026131  -0.031618   0.007557   0.379254  -0.005193   0.016887
    20  H    0.030582   0.012536  -0.001658   0.017897   0.004841  -0.006693
    21  N    0.101045   0.138115   0.026606   0.101851  -0.017315  -0.008778
    22  H    0.018162  -0.023641   0.005759   0.239164  -0.015335  -0.000446
    23  C   -0.033953  -0.125356   0.019926   0.322643   0.114852  -0.026893
    24  C    0.149468   0.173264  -0.123336  -0.720570   0.018382  -0.049450
    25  C   -0.113205  -0.021939   0.030761  -0.575803   0.064019   0.109544
    26  C   -0.214742   0.106979  -0.009708   0.599626  -0.013662   0.009146
    27  H   -0.010771  -0.058589  -0.001357   0.122179  -0.016217   0.026977
    28  H   -0.011008  -0.008633   0.006344   0.032586   0.002819  -0.005632
    29  C   -0.030434   0.056995   0.021502  -0.000935  -0.117297   0.016314
    30  C    0.023632  -0.009904  -0.007432  -0.460441   0.005351   0.003131
    31  H   -0.302813   0.047505   0.047165  -0.069432  -0.016650   0.026884
    32  H    0.018974  -0.005369  -0.006795  -0.035304   0.004001   0.005599
    33  H    0.035953   0.000786  -0.003293   0.034277  -0.002544  -0.009286
    34  H    0.015377  -0.001241  -0.001093   0.027375   0.000281  -0.000655
    35  H   -0.005726   0.002441  -0.000073  -0.011850   0.000447   0.000041
    36  H    0.001270  -0.001249   0.000005   0.027650  -0.002433  -0.000394
    37  H   -0.006345   0.004089   0.002506   0.003384  -0.013086   0.000958
    38  H   -0.020304   0.016769  -0.006454  -0.008146   0.044149   0.010648
    39  H    0.016408  -0.012590  -0.005616  -0.003861   0.016659  -0.004702
    40  H    0.000021  -0.000690  -0.000467  -0.020437   0.002850   0.000115
    41  H   -0.006317  -0.009454   0.000458  -0.050233  -0.002000   0.000331
    42  H   -0.002513   0.007162  -0.000271   0.009123  -0.000480  -0.000004
    43  O    0.148877  -0.073615  -0.096714  -0.030839  -0.038424   0.025087
    44  H    0.048844  -0.014408  -0.010049   0.000557   0.007460   0.003944
    45  H    0.131590   0.035334   0.027764  -0.049721   0.004399   0.033535
               7          8          9         10         11         12
     1  P   -2.141658  -0.244755   0.149914  -0.377642  -0.056960  -0.008870
     2  S   -0.046538  -0.045693  -0.004231   0.029690   0.041041  -0.002838
     3  O   -0.329973  -0.018241   0.000968   0.023659  -0.042556  -0.032720
     4  C   -0.142003   0.014245  -0.055587  -0.017874   0.141369  -0.002633
     5  C    0.051780  -0.005102  -0.047429  -0.035102   0.413255   0.358756
     6  O   -0.158633  -0.002216  -0.001444  -0.039008   0.039573  -0.011321
     7  C    8.387593   0.650047   0.144490   0.578068  -0.012198  -0.008508
     8  H    0.650047   0.506546  -0.057424  -0.013061  -0.002138   0.000243
     9  H    0.144490  -0.057424   0.581089  -0.036851  -0.000557  -0.002829
    10  H    0.578068  -0.013061  -0.036851   0.569048  -0.019641   0.007822
    11  H   -0.012198  -0.002138  -0.000557  -0.019641   0.723852  -0.069688
    12  H   -0.008508   0.000243  -0.002829   0.007822  -0.069688   0.513810
    13  C   -0.083201  -0.013546   0.078619   0.100437  -0.169473   0.015397
    14  H   -0.030602  -0.002301   0.009194   0.003708  -0.018270  -0.002523
[...]
 8,0.00005689,0.00019712,-0.00013759,0.00697981,0.02242271,-0.00595138,
 -0.00185973,-0.00289536,0.00096020,0.06649674,0.00000761,0.00002023,0.
 00005930,0.00009901,0.00001793,-0.00000767,-0.00001231,0.00000528,-0.0
 0001251,0.00001211,0.00013843,-0.00013847,0.00000230,-0.00001385,-0.00
 000399,-0.00000980,-0.00000739,-0.00001172,0.00000775,-0.00000026,-0.0
 0000949,0.00000111,-0.00000005,-0.00000090,-0.00000307,-0.00000267,-0.
 00000234,0.00000312,-0.00000146,-0.00000075,0.00000447,0.00000299,0.00
 001108,-0.00000116,0.00000237,-0.00000799,-0.00000360,0.00000517,0.000
 00132,0.00000059,0.00000032,-0.00000051,-0.00000185,-0.00000108,-0.000
 00037,-0.00000190,-0.00000209,-0.00000059,0.00011944,-0.00033667,0.000
 46993,-0.00000412,-0.00000206,0.00000086,-0.00001155,0.00000674,-0.000
 01293,0.00034314,0.00016965,-0.00021487,-0.00072373,0.00045649,0.00036
 513,-0.00003210,0.00010081,0.00004490,0.00110122,0.00174703,-0.0010062
 9,-0.00016143,0.00010886,-0.00002345,-0.00003983,-0.00004120,-0.000011
 17,0.00074246,-0.00226960,-0.00088065,-0.00001602,0.00006437,0.0000348
 2,-0.00048041,0.00009094,0.00030913,-0.00019695,0.00110641,0.00053794,
 -0.06505035,-0.28015257,0.07689167,-0.00001595,0.00000306,0.00002385,0
 .00000142,0.00000232,-0.00001012,-0.00000311,0.00001432,0.00001191,0.0
 0096857,-0.00150863,-0.00047407,0.00054182,-0.00018100,-0.00017224,0.0
 0077948,-0.00077136,-0.00011794,-0.00000739,0.00015967,-0.00015583,-0.
 00003602,-0.00007330,-0.00008086,0.00008867,0.00005956,-0.00008230,-0.
 00230454,-0.00863310,0.00200418,-0.00334547,-0.01523756,0.00584098,0.0
 6764126,0.30495547,-0.00000736,0.00001778,-0.00001395,-0.00001888,-0.0
 0000144,-0.00001993,0.00001676,-0.00001954,0.00000546,0.00001603,-0.00
 001760,0.00001719,0.00001532,0.00002946,0.00001303,-0.00000598,-0.0000
 0698,-0.00000042,-0.00000046,-0.00000176,0.00000039,0.00000092,0.00000
 040,0.00000002,0.00000030,-0.00000008,0.00000049,-0.00000016,-0.000000
 24,0.00000016,0.00000005,-0.00000145,-0.00002926,-0.00000213,-0.000005
 05,0.00002024,0.00000913,-0.00001076,-0.00000071,-0.00000045,0.0000005
 6,0.00000015,0.00000443,0.00000325,0.00000004,0.00000286,0.00000157,0.
 00000139,-0.00007973,-0.00031298,0.00014155,0.00000203,-0.00000915,0.0
 0000011,0.00001206,0.00000010,0.00000317,-0.00012223,0.00010895,0.0000
 2821,-0.00100114,-0.00033989,0.00050918,-0.00010281,-0.00002078,0.0000
 3377,0.00114045,0.01671020,-0.00517238,0.00038263,0.00008945,0.0000384
 5,-0.00003843,-0.00001842,-0.00001185,0.00009914,0.00002803,0.00001764
 ,-0.00003824,-0.00009721,-0.00001971,-0.00072573,-0.00007863,0.0003227
 3,0.00313767,-0.00063364,-0.00179695,0.02108797,0.07539770,-0.07230500
 ,-0.00001542,-0.00000104,0.00002549,0.00000150,0.00000326,0.00001031,-
 0.00000107,-0.00000838,-0.00000732,-0.00013418,0.00010929,0.00031587,-
 0.00020795,0.00006467,0.00010935,0.00041107,-0.00069857,-0.00068501,0.
 00008164,-0.00034608,0.00007339,0.00063586,0.00104554,0.00010883,0.000
 18423,0.00028441,0.00007139,0.00541361,0.01572684,-0.00539833,-0.00608
 567,-0.02382842,0.00913040,-0.02407156,-0.08316335,0.07446360,-0.01063
 918,-0.02347515,-0.02511253,-0.00063614,0.00222323,0.00195629,-0.00972
 255,0.02435344,0.00144079,0.00061878,0.00009263,0.00024626,-0.00044941
 ,-0.00483907,0.00112912,-0.02642967,-0.00282494,0.06836762,-0.00158854
 ,-0.00491775,-0.00463301,0.00049185,-0.00023995,0.00038919,0.00044577,
 -0.00027912,-0.00128825,0.00106246,0.00060310,-0.00136916,-0.00031743,
 0.00118331,0.00006570,-0.00023095,0.00062183,-0.00007188,-0.00041421,0
 .00064798,-0.00002765,0.00031311,0.00022553,0.00005465,0.00010536,-0.0
 0000346,-0.00000424,0.00004099,-0.00007448,0.00003456,0.00015577,-0.00
 007545,0.00016278,0.00013132,0.00035875,-0.00026765,-0.00025518,0.0001
 1602,0.00004224,-0.00015984,-0.00001915,-0.00004474,-0.00047349,-0.000
 04341,-0.00005165,-0.00001667,0.00003482,-0.00005225,0.00010338,-0.000
 12369,0.00007824,-0.00013530,-0.00001438,0.00003621,0.00004388,0.00015
 773,-0.00007731,-0.00004757,0.00003771,-0.00002833,0.00006045,0.000171
 51,-0.00005000,-0.00003102,0.00000317,-0.00002497,-0.00004951,0.000046
 48,-0.00002869,-0.00004022,0.00003083,-0.00002762,-0.00000336,-0.00000
 966,0.00019126,-0.00007669,-0.00002296,-0.00001908,0.00001885,-0.00003
 614,-0.00002388,-0.00001605,-0.00000203,0.00001237,-0.00000884,-0.0000
 2327,-0.00000317,-0.00004501,-0.00001737,-0.00000140,-0.00002925,0.000
 01660,-0.00000681,0.00001572,-0.00000028,0.00002788,0.00000174,-0.0000
 1380,-0.00001571,-0.00002890,0.00000659,0.00000219,-0.00000223,-0.0000
 0579,0.00000187,0.00000596,-0.00000233,0.00000294,0.17087452,-0.025117
 74,-0.00820391,0.04404908,0.00117626,0.00179764,-0.00034708,0.01779053
 ,-0.02772672,-0.00485330,0.00008123,-0.00058950,-0.00060580,0.00223565
 ,0.00600908,-0.00185846,-0.02282319,0.02534444,0.03384124,0.00041264,-
 0.00715911,-0.01151699,-0.00069838,0.00024564,-0.00007404,-0.00215714,
 0.00128914,-0.00158450,0.00194668,0.00027407,-0.00184824,0.00056351,-0
 .00184857,-0.00002799,0.00032178,-0.00071070,0.00005355,0.00024252,-0.
 00036980,0.00004559,-0.00025075,-0.00024490,-0.00002265,-0.00016346,0.
 00006761,0.00001102,-0.00007009,0.00016211,0.00000659,0.00008739,0.000
 25743,-0.00017810,0.00025991,0.00010720,-0.00014122,0.00032005,0.00031
 185,0.00009923,0.00012242,-0.00001047,0.00006947,0.00017978,0.00006323
 ,0.00006596,-0.00004942,-0.00000405,0.00000439,-0.00003146,0.00003906,
 -0.00001351,-0.00004199,-0.00015055,-0.00000299,-0.00000513,0.00004447
 ,0.00003841,-0.00002152,0.00004814,-0.00001474,0.00001831,0.00005083,-
 0.00003733,0.00001513,-0.00000239,0.00001274,0.00001304,-0.00002679,0.
 00002928,0.00001253,0.00000110,0.00000757,-0.00001495,-0.00003859,-0.0
 0002231,-0.00001916,-0.00000189,-0.00000082,0.00004272,0.00002273,0.00
 000692,-0.00000599,-0.00000467,0.00000285,0.00000947,0.00001216,0.0000
 0129,-0.00001546,-0.00000673,0.00000115,0.00002865,0.00000652,0.000001
 46,-0.00002743,-0.00000077,-0.00004970,0.00000396,0.00001662,0.0000271
 1,0.00000629,-0.00000330,0.00000194,-0.00000042,0.00000244,0.00000090,
 0.00000395,0.00000042,-0.00000380,-0.07091249,0.08361869,-0.02817295,0
 .03529480,0.02550250,0.00350899,-0.00191728,-0.00321847,0.00483515,-0.
 01260139,0.00243202,-0.00076117,-0.00098195,-0.00121962,-0.00009656,0.
 00386318,0.00046640,0.05800107,0.00573940,-0.06587849,0.00223514,-0.01
 394039,-0.01747288,0.00103798,-0.00040132,0.00032314,-0.00414574,-0.00
 073832,-0.00104069,0.00069831,-0.00028611,-0.00065284,0.00007109,-0.00
 048758,-0.00003502,0.00021697,-0.00066764,0.00005907,0.00017110,-0.000
 41116,-0.00011800,-0.00013728,-0.00018647,0.00003899,-0.00006816,-0.00
 002002,0.00001264,-0.00000295,0.00026296,0.00005438,-0.00017741,0.0004
 6644,-0.00059789,0.00008423,-0.00059167,0.00034986,0.00082420,0.000082
 50,-0.00002040,0.00039241,-0.00000627,0.00019761,0.00060712,0.00000713
 ,0.00028133,-0.00001065,-0.00005451,0.00007007,-0.00017602,0.00024779,
 -0.00013363,0.00016922,-0.00005390,-0.00029100,0.00007998,0.00001392,0
 .00008706,0.00007019,-0.00004164,0.00013055,0.00003399,-0.00029948,0.0
 0008592,0.00005489,-0.00001706,0.00005618,0.00007603,-0.00004240,0.000
 02014,0.00006745,-0.00005323,0.00005983,0.00003657,-0.00000077,-0.0000
 5125,0.00002454,0.00000640,0.00005466,0.00000728,0.00004785,0.00003908
 ,-0.00000376,-0.00001208,-0.00000462,0.00001765,0.00003992,0.00000228,
 0.00007584,0.00002969,0.00000297,0.00002623,-0.00003293,0.00001429,-0.
 00001797,-0.00001049,-0.00002151,-0.00001081,0.00001962,0.00001356,0.0
 0004662,-0.00000953,0.00000077,0.00000147,0.00001405,0.00000434,-0.000
 00922,-0.00000370,-0.00000329,0.17782190,-0.15117904,0.43518089,0.0030
 8333,-0.00268910,0.00262215,-0.00025397,0.00001301,0.00002570,-0.00028
 785,0.00034389,0.00044415,-0.00001152,0.00002778,0.00012967,-0.0001226
 8,0.00029417,-0.00023585,-0.00715983,0.00018824,0.00474351,-0.00015045
 ,0.00024970,-0.00000540,-0.00008351,-0.00016873,0.00008888,0.00036022,
 0.00002345,-0.00006576,0.00001043,0.00011326,-0.00015584,0.00002292,-0
 .00008111,-0.00001870,0.00000037,-0.00001895,-0.00000179,0.00007129,-0
 .00009258,-0.00001890,-0.00003071,-0.00002122,-0.00000284,-0.00001027,
 -0.00000720,0.00000281,-0.00000530,-0.00000776,-0.00000456,0.00002316,
 -0.00001603,0.00003735,-0.00000152,0.00005619,-0.00002577,-0.00005798,
 0.00000458,0.00001402,-0.00001367,0.00000228,-0.00001177,0.00003375,0.
 00000296,-0.00004823,-0.00000469,0.00000014,-0.00000275,-0.00000284,-0
 .00001061,0.00000166,-0.00001497,0.00002081,0.00007552,-0.00007253,-0.
 00008805,0.00001603,0.00000002,0.00000227,-0.00002897,-0.00002744,0.00
 001571,0.00000195,-0.00000340,0.00000173,-0.00000262,-0.00000185,-0.00
 000834,0.00001300,0.00000068,0.00000107,-0.00000393,-0.00022792,0.0001
 2335,0.00001035,0.00001824,0.00000617,-0.00001307,0.00001306,0.0000015
 4,-0.00000701,0.00000993,0.00000552,-0.00000160,-0.00000068,-0.0000006
 0,0.00000099,-0.00000566,-0.00000377,0.00000206,0.00000344,0.00000064,
 -0.00000137,-0.00000176,0.00000800,-0.00000206,0.00000171,-0.00000021,
 -0.00000324,-0.00000030,-0.00000112,-0.00000027,0.00000085,-0.00000080
 ,-0.00000175,0.00000022,0.00000107,-0.00000015,-0.11643145,0.07670833,
 -0.20382950,0.11479866,-0.00625481,0.00293168,-0.00283732,0.00055338,-
 0.00005911,-0.00002121,-0.00048930,0.00002491,0.00017019,-0.00000157,-
 0.00005988,-0.00012751,-0.00001734,-0.00058497,0.00037395,-0.00150945,
 0.00263292,0.00153328,0.00032870,-0.00210942,-0.00214684,0.00032928,0.
 00000513,0.00020245,-0.00053789,-0.00038704,-0.00037084,-0.00000082,-0
 .00000412,-0.00012360,-0.00006396,0.00021167,0.00002018,0.00000685,0.0
 0004628,-0.00000673,-0.00004713,0.00012563,-0.00004473,0.00003317,0.00
 003415,0.00002794,0.00000180,-0.00001160,0.00000517,0.00000711,0.00001
 765,0.00001362,-0.00000121,0.00001850,-0.00003348,0.00003580,0.0000018
 0,-0.00001291,0.00006424,0.00003189,0.00000546,0.00001318,-0.00000437,
 0.00001200,-0.00001079,-0.00001591,0.00001263,0.00000120,-0.00000029,-
 0.00000373,-0.00000914,0.00000925,0.00000458,0.00001013,0.00001025,0.0
 0002153,-0.00001298,-0.00003410,-0.00001771,-0.00000222,-0.00000441,-0
 .00000922,0.00000804,0.00000248,-0.00000251,-0.00000274,-0.00000061,-0
 .00000088,0.00000388,0.00000212,-0.00000438,-0.00000270,-0.00000117,-0
 .00000071,-0.00002401,0.00000737,0.00002516,0.00001378,-0.00000018,-0.
 00000734,-0.00002185,-0.00001656,0.00000012,0.00000566,0.00000199,-0.0
 0000083,-0.00000093,-0.00000143,0.00000115,0.00000204,-0.00000123,0.00
 000102,-0.00000224,-0.00000180,0.00000016,0.00000253,-0.00000132,0.000
 00423,0.00000024,-0.00000247,-0.00000117,0.00000061,0.00000023,-0.0000
 0051,0.00000172,-0.00000071,0.00000149,-0.00000047,-0.00000093,0.00000
 127,0.07535608,-0.06371289,0.13834597,-0.07429369,0.06214192,-0.003356
 02,0.00163389,-0.00870582,0.00006027,0.00011304,0.00037231,-0.00175802
 ,0.00377551,0.00099061,0.00010147,0.00005430,-0.00004432,-0.00010033,-
 0.00134231,0.00081471,0.00309704,0.00045373,0.00028752,0.00035479,-0.0
 0129137,-0.00105841,0.00035044,0.00009857,0.00025332,-0.00027145,-0.00
 013194,0.00004553,-0.00003893,0.00002177,-0.00003600,-0.00014092,0.000
 45356,0.00003697,-0.00003591,0.00010714,-0.00004802,-0.00013193,0.0002
 2923,-0.00002998,0.00008823,0.00007428,0.00002799,0.00003066,-0.000009
 44,0.00000124,0.00001630,-0.00001021,0.00001064,0.00000356,-0.00002070
 ,-0.00000961,0.00000225,-0.00004397,-0.00000834,-0.00000271,-0.0000245
 1,-0.00000977,-0.00001143,-0.00000160,-0.00000032,-0.00007349,-0.00001
 574,0.00001355,0.00000654,0.00000197,-0.00000202,0.00000792,-0.0000072
 5,0.00001108,-0.00001088,0.00000531,-0.00000438,0.00002191,0.00001773,
 -0.00001597,-0.00000253,-0.00000099,0.00000832,0.00001419,0.,-0.000011
 86,-0.00000293,-0.00000115,-0.00000241,-0.00000738,0.00000993,-0.00000
 833,-0.00000568,0.00000235,-0.00000264,0.00017696,0.00002328,-0.000058
 55,-0.00001670,-0.00000386,-0.00000431,0.00000943,-0.00000691,-0.00000
 313,-0.00000131,0.00000014,0.00000202,-0.00000046,-0.00000126,-0.00000
 053,-0.00000082,0.00000032,-0.00000050,-0.00000658,-0.00000016,0.00000
 108,0.00000738,0.,0.00000811,-0.00000087,-0.00000392,-0.00000457,-0.00
 000267,0.00000086,-0.00000014,0.00000064,-0.00000086,0.00000099,0.0000
 0024,-0.00000040,0.00000090,-0.19162100,0.13156607,-0.37894381,0.19501
 789,-0.13555822,0.39034704,0.02636759,0.01214830,-0.01966679,0.0013316
 2,-0.00517899,-0.00218696,-0.00147932,-0.00097984,0.00183859,-0.001089
 59,-0.00026445,0.00025713,-0.00088400,0.00064850,0.00057353,-0.0702027
 0,0.01293116,0.06305670,-0.00060252,0.00010454,0.00191959,-0.00015284,
 -0.00000169,-0.00003060,0.00020153,0.00009354,0.00033107,-0.00060091,-
 0.00030312,0.00000436,-0.00013166,0.00018816,-0.00006862,-0.00000060,-
 0.00017807,0.00003612,0.00010449,-0.00020774,0.00001185,-0.00005965,-0
 .00005973,-0.00000437,-0.00000204,-0.00002019,0.00000948,0.00002772,0.
 00006479,-0.00000331,-0.00011811,0.00010262,-0.00020936,-0.00032873,-0
 .00002314,0.00034684,0.00013428,-0.00009499,-0.00006502,0.00016466,0.0
 0002814,0.00005953,0.00035084,-0.00000950,0.00008050,-0.00000949,-0.00
 002066,0.00004808,-0.00009370,0.00011863,-0.00005806,0.00008828,-0.000
 06466,-0.00001282,0.00027258,-0.00012435,0.00036542,0.00003219,-0.0000
 1681,0.00002789,-0.00023662,-0.00016745,0.00007021,0.00002301,-0.00000
 718,0.00001809,0.00002282,-0.00001456,0.00001457,0.00002778,-0.0000271
 0,0.00002539,0.00009735,0.00029894,-0.00014449,0.00010579,0.00004229,-
 0.00000273,0.00001289,0.00001675,0.00002342,-0.00000131,0.00000092,-0.
 00001319,0.00000179,0.00001574,-0.00000064,0.00003417,0.00001104,-0.00
 000524,0.00000700,-0.00001984,0.00000816,-0.00000431,0.00000449,-0.000
 00455,-0.00000795,0.00000524,-0.00000073,0.00002422,-0.00000345,-0.000
 00118,0.00000416,0.00000576,0.00000118,-0.00000415,-0.00000162,0.00000
 114,-0.00621127,0.01982341,-0.01367344,0.00653247,0.00652780,-0.001767
 11,0.04625222,0.01122462,-0.04057063,-0.03462249,-0.00060626,-0.003385
 23,-0.00164859,-0.00125316,0.00356370,-0.00006741,-0.00093990,-0.00024
 134,0.00088554,0.00045132,-0.00133326,-0.00009979,0.03561393,-0.061662
 97,-0.06168310,-0.00062751,0.00123465,0.00109324,-0.00033116,-0.000029
 69,-0.00006054,0.00061777,0.00023621,0.00002014,0.00001939,0.00009610,
 0.00005194,-0.00009486,0.00019166,0.00000376,-0.00007837,0.00024671,0.
 00000938,-0.00012461,0.00029033,-0.00000609,0.00009772,0.00007780,0.00
 001478,0.00001642,-0.00001793,0.00000524,0.00003777,-0.00002429,-0.000
 00819,0.00004176,0.00015413,-0.00000248,0.00024709,0.00052342,-0.00013
 943,-0.00012767,0.00014254,0.00006562,0.00001559,-0.00003071,0.0000226
 9,-0.00008852,-0.00003499,0.00003248,-0.00004756,0.00001149,-0.0000472
 4,0.00002205,-0.00000355,0.00000786,-0.00009526,-0.00005791,0.00005595
 ,0.00030610,0.00008282,0.00001534,-0.00003133,0.00003039,-0.00002170,0
 .00011168,0.00009279,0.00000302,-0.00000477,0.00000056,-0.00000242,-0.
 00000956,0.00001192,-0.00002071,-0.00000348,0.00000417,-0.00000423,0.0
 0011791,-0.00005370,0.00006518,-0.00003219,-0.00003220,-0.00001359,0.0
 0000623,-0.00004452,-0.00001194,-0.00001169,0.00000204,0.00000293,-0.0
 0000094,-0.00000678,-0.00000131,-0.00001853,-0.00001045,0.00000021,-0.
 00000706,0.00000207,-0.00000089,0.00000407,-0.00000002,0.00000795,-0.0
 0000293,-0.00000437,-0.00000169,-0.00000505,-0.00000026,0.00000120,-0.
 00000216,-0.00000123,-0.00000046,0.00000193,-0.00000201,0.00000252,0.0
 0168878,-0.00897634,0.00056675,-0.00070600,-0.00124128,-0.00016619,-0.
 04539162,0.11077014,-0.01844935,-0.03777191,0.02224244,-0.00020731,0.0
 0391882,0.00345005,0.00156146,0.00106008,-0.00250393,0.00111283,0.0002
 4369,0.00008633,0.00100791,-0.00059991,-0.00086693,0.07173473,-0.03072
 115,-0.14029660,0.00043536,0.00117922,-0.00290103,-0.00054338,0.000018
 97,-0.00010438,0.00018765,0.00019055,-0.00056013,0.00117590,0.00061488
 ,0.00008619,0.00016803,-0.00024574,0.00005099,0.00000847,0.00020057,-0
 .00003401,-0.00008448,0.00021992,0.00002840,0.00003938,0.00005824,0.00
 000747,-0.00000351,0.00002621,-0.00001722,-0.00003949,-0.00007276,-0.0
 0001513,0.00038091,-0.00018595,0.00019636,0.00017465,0.00051612,-0.000
 52485,-0.00027290,0.00030309,0.00012604,-0.00022505,0.00000294,-0.0000
 7671,-0.00057835,0.00001425,-0.00020532,-0.00004411,0.00005723,-0.0000
 5587,0.00013262,-0.00021753,0.00015280,-0.00022617,-0.00002155,0.00025
 834,0.00008944,0.00000092,-0.00009628,-0.00008019,0.00006523,-0.000150
 28,0.00014626,0.00032262,-0.00006475,-0.00004302,0.00001081,-0.0000431
 9,-0.00006153,0.00002771,-0.00000428,-0.00006191,0.00005535,-0.0000580
 6,-0.00012804,0.00014328,0.00002323,-0.00002567,-0.00000971,-0.0000626
 3,0.00002049,-0.00005694,-0.00002745,-0.00000241,0.00000804,0.00000243
 ,-0.00001539,-0.00003299,-0.00000142,-0.00008480,-0.00003264,-0.000002
 13,-0.00001022,0.00003095,-0.00001404,0.00001400,0.00000258,0.00000348
 ,0.00000854,-0.00000937,0.00000030,-0.00004199,0.00000919,0.00000518,-
 0.00000099,-0.00000817,-0.00000218,0.00000830,0.00000049,0.00000122,-0
 .02721307,-0.03556117,0.00416289,0.00124602,0.00054879,-0.00422016,-0.
 03120961,0.09569676,0.12202482\\0.00000020,0.00000357,0.00000107,-0.00
 000102,0.00000746,-0.00000117,-0.00000059,-0.00000043,-0.00000149,0.00
 000022,0.00000661,0.00000163,-0.00000223,-0.00000055,-0.00000547,0.000
 00187,0.00000320,0.00000516,-0.00000042,0.00000674,0.00000021,0.000000
 61,0.00000815,0.00000288,-0.00000138,0.00000907,-0.00000176,-0.0000006
 9,0.00000485,-0.00000082,-0.00000245,0.00000068,-0.00000581,-0.0000022
 7,-0.00000380,-0.00000616,-0.00000334,0.00000155,-0.00000779,-0.000004
 51,0.00000098,-0.00001076,-0.00000302,0.00000045,-0.00000724,-0.000003
 37,0.00000484,-0.00000730,-0.00000013,0.00000326,0.00000028,0.00000142
 ,0.00000634,0.00000453,-0.00000009,0.00000947,0.00000142,0.00000046,0.
 00000382,0.00000176,0.00000040,-0.00000092,0.00000066,-0.00000139,0.00
 000370,-0.00000270,-0.00000036,-0.00000383,-0.00000158,0.00000206,-0.0
 0000200,0.00000466,0.00000246,-0.00000548,0.00000501,0.00000300,-0.000
 00294,0.00000674,0.00000247,0.00000061,0.00000609,0.00000039,-0.000006
 75,-0.00000023,-0.00000200,-0.00000430,-0.00000553,-0.00000054,-0.0000
 0296,-0.00000182,0.00000183,-0.00000476,0.00000361,0.00000215,-0.00000
 829,0.00000374,0.00000372,-0.00000602,0.00000794,0.00000276,-0.0000004
 6,0.00000659,0.00000425,-0.00000338,0.00000970,0.00000274,-0.00000571,
 0.00000563,-0.00000253,-0.00000637,-0.00000723,-0.00000191,-0.00000544
 ,-0.00000546,-0.00000275,-0.00000138,-0.00000691,-0.00000087,-0.000005
 59,-0.00000309,-0.00000146,-0.00000038,-0.00000359,0.00000054,-0.00000
 235,0.00000092,0.00000176,0.00000004,0.00000427,0.00000158,-0.00000270
 ,0.00000335,0.00000241,0.00000143,0.00000607\\\@


 A ROPE OVER THE TOP OF A FENCE HAS THE SAME LENGTH ON EACH SIDE.
 WEIGHS 1/3 POUND PER FOOT.  ON ONE END HANGS A MONKEY HOLDING A
 BANANA, AND ON THE OTHER END A WEIGHT EQUAL TO THE WEIGHT
 OF THE MONKEY.  THE BANANA WEIGHS TWO OUNCES PER INCH.
 THE ROPE IS AS LONG AS THE AGE OF THE MONKEY, 
 AND THE WEIGHT OF THE MONKEY (IN OUNCES) IS AS MUCH
 AS THE AGE OF THE MONKEY'S MOTHER.  THE COMBINED AGES OF MONKEY
 AND MOTHER ARE THIRTY YEARS.  HALF THE WEIGHT OF THE MONKEY,
  PLUS THE WEIGHT OF THE BANANA, IS ONE FOURTH AS MUCH AS THE WEIGHT
 OF THE WEIGHT AND THE ROPE.
 THE MONKEY'S MOTHER IS HALF AS OLD AS THE MONKEY WILL BE
 WHEN IT IS 3 TIMES AS OLD AS ITS MOTHER WAS WHEN
 SHE WAS HALF AS OLD AS THE MONKEY WILL BE WHEN IT IS
 AS OLD AS ITS MOTHER WILL BE WHEN SHE IS 4 TIMES AS
 OLD AS THE MONKEY WAS WHEN IT WAS TWICE AS OLD AS 
 ITS MOTHER WAS WHEN SHE WAS ONE THIRD AS OLD AS THE
 MONKEY WAS WHEN IT WAS AS OLD AS ITS MOTHER WAS WHEN 
 SHE WAS 3 TIMES AS OLD AS THE MONKEY WAS WHEN IT WAS AS OLD AS ITS
 MOTHER WAS WHEN SHE WAS 3 TIMES AS OLD AS THE MONKEY 
 WAS WHEN IT WAS ONE FOURTH WAS OLD AS IT IS NOW.

 HOW LONG IS THE BANANA?
 Job cpu time:       0 days 23 hours 44 minutes 25.1 seconds.
 File lengths (MBytes):  RWF=   1511 Int=      0 D2E=      0 Chk=     44 Scr=      1
 Normal termination of Gaussian 09 at Tue Nov  5 12:56:11 2019.
