 Entering Gaussian System, Link 0=g09
 Input=/rds/general/user/smf115/home/VXHydrolysis/ReactionSMD/Diffuse/vx_sp.com
 Output=/rds/general/user/smf115/home/VXHydrolysis/ReactionSMD/Diffuse/vx_sp.log
 Initial command:
 /apps/gaussian/g09_d01/g09/l1.exe "/tmp/pbs.376107.pbs/Gau-2126.inp" -scrdir="/tmp/pbs.376107.pbs/"
 Entering Link 1 = /apps/gaussian/g09_d01/g09/l1.exe PID=      2127.
  
 Copyright (c) 1988,1990,1992,1993,1995,1998,2003,2009,2013,
            Gaussian, Inc.  All Rights Reserved.
  
 This is part of the Gaussian(R) 09 program.  It is based on
 the Gaussian(R) 03 system (copyright 2003, Gaussian, Inc.),
 the Gaussian(R) 98 system (copyright 1998, Gaussian, Inc.),
 the Gaussian(R) 94 system (copyright 1995, Gaussian, Inc.),
 the Gaussian 92(TM) system (copyright 1992, Gaussian, Inc.),
 the Gaussian 90(TM) system (copyright 1990, Gaussian, Inc.),
 the Gaussian 88(TM) system (copyright 1988, Gaussian, Inc.),
 the Gaussian 86(TM) system (copyright 1986, Carnegie Mellon
 University), and the Gaussian 82(TM) system (copyright 1983,
 Carnegie Mellon University). Gaussian is a federally registered
 trademark of Gaussian, Inc.
  
 This software contains proprietary and confidential information,
 including trade secrets, belonging to Gaussian, Inc.
  
 This software is provided under written license and may be
 used, copied, transmitted, or stored only in accord with that
 written license.
  
 The following legend is applicable only to US Government
 contracts under FAR:
  
                    RESTRICTED RIGHTS LEGEND
  
 Use, reproduction and disclosure by the US Government is
 subject to restrictions as set forth in subparagraphs (a)
 and (c) of the Commercial Computer Software - Restricted
 Rights clause in FAR 52.227-19.
  
 Gaussian, Inc.
 340 Quinnipiac St., Bldg. 40, Wallingford CT 06492
  
  
 ---------------------------------------------------------------
 Warning -- This program may not be used in any manner that
 competes with the business of Gaussian, Inc. or will provide
 assistance to any competitor of Gaussian, Inc.  The licensee
 of this program is prohibited from giving any competitor of
 Gaussian, Inc. access to this program.  By using this program,
 the user acknowledges that Gaussian, Inc. is engaged in the
 business of creating and licensing software in the field of
 computational chemistry and represents and warrants to the
 licensee that it is not a competitor of Gaussian, Inc. and that
 it will not use this program in any manner prohibited above.
 ---------------------------------------------------------------
  

 Cite this work as:
 Gaussian 09, Revision D.01,
 M. J. Frisch, G. W. Trucks, H. B. Schlegel, G. E. Scuseria, 
 M. A. Robb, J. R. Cheeseman, G. Scalmani, V. Barone, B. Mennucci, 
 G. A. Petersson, H. Nakatsuji, M. Caricato, X. Li, H. P. Hratchian, 
 A. F. Izmaylov, J. Bloino, G. Zheng, J. L. Sonnenberg, M. Hada, 
 M. Ehara, K. Toyota, R. Fukuda, J. Hasegawa, M. Ishida, T. Nakajima, 
 Y. Honda, O. Kitao, H. Nakai, T. Vreven, J. A. Montgomery, Jr., 
 J. E. Peralta, F. Ogliaro, M. Bearpark, J. J. Heyd, E. Brothers, 
 K. N. Kudin, V. N. Staroverov, T. Keith, R. Kobayashi, J. Normand, 
 K. Raghavachari, A. Rendell, J. C. Burant, S. S. Iyengar, J. Tomasi, 
 M. Cossi, N. Rega, J. M. Millam, M. Klene, J. E. Knox, J. B. Cross, 
 V. Bakken, C. Adamo, J. Jaramillo, R. Gomperts, R. E. Stratmann, 
 O. Yazyev, A. J. Austin, R. Cammi, C. Pomelli, J. W. Ochterski, 
 R. L. Martin, K. Morokuma, V. G. Zakrzewski, G. A. Voth, 
 P. Salvador, J. J. Dannenberg, S. Dapprich, A. D. Daniels, 
 O. Farkas, J. B. Foresman, J. V. Ortiz, J. Cioslowski, 
 and D. J. Fox, Gaussian, Inc., Wallingford CT, 2013.
 
 ******************************************
 Gaussian 09:  ES64L-G09RevD.01 24-Apr-2013
                18-Jul-2019 
 ******************************************
 %Chk=vx_sp
 %NProcShared=12
 Will use up to   12 processors via shared memory.
 %Mem=45000MB
 ----------------------------------------------------------------------
 #P M062X/6-311++G(d,p) Freq SCRF(SMD) SCF(Conver=9) Int(Grid=UltraFine
 ) Geom(Check) Guess(Read)
 ----------------------------------------------------------------------
 1/10=4,29=2,30=1,38=1/1,3;
 2/12=2,40=1/2;
 3/5=4,6=6,7=1111,11=2,14=-4,16=1,25=1,30=1,70=32201,71=2,72=1,74=-55,75=-5,116=-2,140=1/1,2,3;
 4/5=1/1;
 5/5=2,6=9,38=6,98=1/2;
 8/6=4,10=90,11=11/1;
 11/6=1,8=1,9=11,15=111,16=1/1,2,10;
 10/6=1/2;
 6/7=2,8=2,9=2,10=2,18=1,28=1/1;
 7/8=1,10=1,25=1/1,2,3,16;
 1/10=4,30=1/3;
 99//99;
 Leave Link    1 at Thu Jul 18 16:37:43 2019, MaxMem=  5898240000 cpu:         0.9
 (Enter /apps/gaussian/g09_d01/g09/l101.exe)
 ----------
 vx_sp Freq
 ----------
 Structure from the checkpoint file:  "vx_sp.chk"
 Charge =  0 Multiplicity = 1
 Redundant internal coordinates found in file.
 P,0,-2.3413340881,-0.3707868156,0.3022216416
 S,0,-1.2074107252,-1.6871811861,-0.8875442783
 O,0,-2.6171173187,0.8914320643,-0.649600326
 C,0,0.1627170521,-2.1766651001,0.2364469613
 C,0,-1.510759533,1.7566843328,-1.0284033313
 O,0,-1.6579039056,-0.0404728684,1.5928397536
 C,0,-3.9862345806,-1.0507414203,0.4648653058
 H,0,-3.9282984841,-1.9606318399,1.0631429516
 H,0,-4.3974769649,-1.2802258617,-0.518728946
 H,0,-4.614920025,-0.3148041866,0.9699744668
 H,0,-1.5358657953,1.8196287537,-2.1164093639
 H,0,-0.5706189573,1.2874950336,-0.7283094512
 C,0,-1.6884579678,3.1089184368,-0.3810759493
 H,0,-0.8587469778,3.759600532,-0.6677417743
 H,0,-1.69723436,3.0162567412,0.707111149
 H,0,-2.6217962986,3.5731383108,-0.7050576344
 C,0,1.5093547562,-1.5822836575,-0.1614121002
 H,0,-0.1306374087,-1.926020835,1.2543682654
 H,0,0.2179028362,-3.2629056611,0.1596155262
 H,0,2.2756521536,-2.1490788791,0.3935864779
 N,0,1.6321388018,-0.1467031405,0.0439260261
 H,0,1.6716121912,-1.8010341226,-1.2188316143
 C,0,2.6279129559,0.4836264436,-0.8527308643
 C,0,1.7646546123,0.2252985362,1.466316601
 C,0,1.3018737522,1.6621301438,1.6991470433
 C,0,3.1566415582,0.0117430804,2.0747851882
 H,0,1.0708553267,-0.4231237818,2.0075700184
 H,0,2.9240197768,1.418247881,-0.3716240007
 C,0,1.986998625,0.8389099118,-2.1933079457
 C,0,3.9081637004,-0.3316419383,-1.0959811579
 H,0,0.2850383572,1.8076461544,1.3319647215
 H,0,1.957159281,2.3842296413,1.2038897599
 H,0,1.3146720436,1.8885494454,2.7686150343
 H,0,3.5142218598,-1.0103727657,1.9296453528
 H,0,3.1157607297,0.2023371565,3.1502956646
 H,0,3.8871702502,0.701197207,1.6417782138
 H,0,2.7328574152,1.2539955358,-2.8766132489
 H,0,1.1911143883,1.5754736668,-2.0661529066
 H,0,1.5586051888,-0.051066011,-2.6655603467
 H,0,4.6441313982,0.2989356932,-1.6013375554
 H,0,3.7159661485,-1.1914009584,-1.7435360522
 H,0,4.3550782315,-0.6944006729,-0.1699832755
 Recover connectivity data from disk.
 NAtoms=     42 NQM=       42 NQMF=       0 NMMI=      0 NMMIF=      0
                NMic=       0 NMicF=      0.
                    Isotopes and Nuclear Properties:
 (Nuclear quadrupole moments (NQMom) in fm**2, nuclear magnetic moments (NMagM)
  in nuclear magnetons)

  Atom         1           2           3           4           5           6           7           8           9          10
 IAtWgt=          31          32          16          12          12          16          12           1           1           1
 AtmWgt=  30.9737634  31.9720718  15.9949146  12.0000000  12.0000000  15.9949146  12.0000000   1.0078250   1.0078250   1.0078250
 NucSpn=           1           0           0           0           0           0           0           1           1           1
 AtZEff= -12.9400000 -13.6000000  -5.6000000  -3.6000000  -3.6000000  -5.6000000  -3.6000000  -1.0000000  -1.0000000  -1.0000000
 NQMom=    0.0000000   0.0000000   0.0000000   0.0000000   0.0000000   0.0000000   0.0000000   0.0000000   0.0000000   0.0000000
 NMagM=    1.1316000   0.0000000   0.0000000   0.0000000   0.0000000   0.0000000   0.0000000   2.7928460   2.7928460   2.7928460
 AtZNuc=  15.0000000  16.0000000   8.0000000   6.0000000   6.0000000   8.0000000   6.0000000   1.0000000   1.0000000   1.0000000

  Atom        11          12          13          14          15          16          17          18          19          20
 IAtWgt=           1           1          12           1           1           1          12           1           1           1
 AtmWgt=   1.0078250   1.0078250  12.0000000   1.0078250   1.0078250   1.0078250  12.0000000   1.0078250   1.0078250   1.0078250
 NucSpn=           1           1           0           1           1           1           0           1           1           1
 AtZEff=  -1.0000000  -1.0000000  -3.6000000  -1.0000000  -1.0000000  -1.0000000  -3.6000000  -1.0000000  -1.0000000  -1.0000000
 NQMom=    0.0000000   0.0000000   0.0000000   0.0000000   0.0000000   0.0000000   0.0000000   0.0000000   0.0000000   0.0000000
 NMagM=    2.7928460   2.7928460   0.0000000   2.7928460   2.7928460   2.7928460   0.0000000   2.7928460   2.7928460   2.7928460
 AtZNuc=   1.0000000   1.0000000   6.0000000   1.0000000   1.0000000   1.0000000   6.0000000   1.0000000   1.0000000   1.0000000

  Atom        21          22          23          24          25          26          27          28          29          30
 IAtWgt=          14           1          12          12          12          12           1           1          12          12
 AtmWgt=  14.0030740   1.0078250  12.0000000  12.0000000  12.0000000  12.0000000   1.0078250   1.0078250  12.0000000  12.0000000
 NucSpn=           2           1           0           0           0           0           1           1           0           0
 AtZEff=  -4.5500000  -1.0000000  -3.6000000  -3.6000000  -3.6000000  -3.6000000  -1.0000000  -1.0000000  -3.6000000  -3.6000000
 NQMom=    2.0440000   0.0000000   0.0000000   0.0000000   0.0000000   0.0000000   0.0000000   0.0000000   0.0000000   0.0000000
 NMagM=    0.4037610   2.7928460   0.0000000   0.0000000   0.0000000   0.0000000   2.7928460   2.7928460   0.0000000   0.0000000
 AtZNuc=   7.0000000   1.0000000   6.0000000   6.0000000   6.0000000   6.0000000   1.0000000   1.0000000   6.0000000   6.0000000

  Atom        31          32          33          34          35          36          37          38          39          40
 IAtWgt=           1           1           1           1           1           1           1           1           1           1
 AtmWgt=   1.0078250   1.0078250   1.0078250   1.0078250   1.0078250   1.0078250   1.0078250   1.0078250   1.0078250   1.0078250
 NucSpn=           1           1           1           1           1           1           1           1           1           1
 AtZEff=  -1.0000000  -1.0000000  -1.0000000  -1.0000000  -1.0000000  -1.0000000  -1.0000000  -1.0000000  -1.0000000  -1.0000000
 NQMom=    0.0000000   0.0000000   0.0000000   0.0000000   0.0000000   0.0000000   0.0000000   0.0000000   0.0000000   0.0000000
 NMagM=    2.7928460   2.7928460   2.7928460   2.7928460   2.7928460   2.7928460   2.7928460   2.7928460   2.7928460   2.7928460
 AtZNuc=   1.0000000   1.0000000   1.0000000   1.0000000   1.0000000   1.0000000   1.0000000   1.0000000   1.0000000   1.0000000

  Atom        41          42
 IAtWgt=           1           1
 AtmWgt=   1.0078250   1.0078250
 NucSpn=           1           1
 AtZEff=  -1.0000000  -1.0000000
 NQMom=    0.0000000   0.0000000
 NMagM=    2.7928460   2.7928460
 AtZNuc=   1.0000000   1.0000000
 Leave Link  101 at Thu Jul 18 16:37:43 2019, MaxMem=  5898240000 cpu:         3.8
 (Enter /apps/gaussian/g09_d01/g09/l103.exe)

 GradGradGradGradGradGradGradGradGradGradGradGradGradGradGradGradGradGrad
 Berny optimization.
 Initialization pass.
                           ----------------------------
                           !    Initial Parameters    !
                           ! (Angstroms and Degrees)  !
 --------------------------                            --------------------------
 ! Name  Definition              Value          Derivative Info.                !
 --------------------------------------------------------------------------------
 ! R1    R(1,2)                  2.1058         calculate D2E/DX2 analytically  !
 ! R2    R(1,3)                  1.6047         calculate D2E/DX2 analytically  !
 ! R3    R(1,6)                  1.4973         calculate D2E/DX2 analytically  !
 ! R4    R(1,7)                  1.7873         calculate D2E/DX2 analytically  !
 ! R5    R(2,4)                  1.8385         calculate D2E/DX2 analytically  !
 ! R6    R(3,5)                  1.4547         calculate D2E/DX2 analytically  !
 ! R7    R(4,17)                 1.5248         calculate D2E/DX2 analytically  !
 ! R8    R(4,18)                 1.0886         calculate D2E/DX2 analytically  !
 ! R9    R(4,19)                 1.0904         calculate D2E/DX2 analytically  !
 ! R10   R(5,11)                 1.0901         calculate D2E/DX2 analytically  !
 ! R11   R(5,12)                 1.0927         calculate D2E/DX2 analytically  !
 ! R12   R(5,13)                 1.5097         calculate D2E/DX2 analytically  !
 ! R13   R(7,8)                  1.0905         calculate D2E/DX2 analytically  !
 ! R14   R(7,9)                  1.0905         calculate D2E/DX2 analytically  !
 ! R15   R(7,10)                 1.0918         calculate D2E/DX2 analytically  !
 ! R16   R(13,14)                1.0927         calculate D2E/DX2 analytically  !
 ! R17   R(13,15)                1.0922         calculate D2E/DX2 analytically  !
 ! R18   R(13,16)                1.0916         calculate D2E/DX2 analytically  !
 ! R19   R(17,20)                1.1029         calculate D2E/DX2 analytically  !
 ! R20   R(17,21)                1.4554         calculate D2E/DX2 analytically  !
 ! R21   R(17,22)                1.0919         calculate D2E/DX2 analytically  !
 ! R22   R(21,23)                1.4808         calculate D2E/DX2 analytically  !
 ! R23   R(21,24)                1.4762         calculate D2E/DX2 analytically  !
 ! R24   R(23,28)                1.0921         calculate D2E/DX2 analytically  !
 ! R25   R(23,29)                1.5278         calculate D2E/DX2 analytically  !
 ! R26   R(23,30)                1.5372         calculate D2E/DX2 analytically  !
 ! R27   R(24,25)                1.5274         calculate D2E/DX2 analytically  !
 ! R28   R(24,26)                1.5341         calculate D2E/DX2 analytically  !
 ! R29   R(24,27)                1.0931         calculate D2E/DX2 analytically  !
 ! R30   R(25,31)                1.0908         calculate D2E/DX2 analytically  !
 ! R31   R(25,32)                1.0937         calculate D2E/DX2 analytically  !
 ! R32   R(25,33)                1.0932         calculate D2E/DX2 analytically  !
 ! R33   R(26,34)                1.0925         calculate D2E/DX2 analytically  !
 ! R34   R(26,35)                1.093          calculate D2E/DX2 analytically  !
 ! R35   R(26,36)                1.0939         calculate D2E/DX2 analytically  !
 ! R36   R(29,37)                1.0934         calculate D2E/DX2 analytically  !
 ! R37   R(29,38)                1.0918         calculate D2E/DX2 analytically  !
 ! R38   R(29,39)                1.0948         calculate D2E/DX2 analytically  !
 ! R39   R(30,40)                1.093          calculate D2E/DX2 analytically  !
 ! R40   R(30,41)                1.0934         calculate D2E/DX2 analytically  !
 ! R41   R(30,42)                1.0903         calculate D2E/DX2 analytically  !
 ! A1    A(2,1,3)              104.4258         calculate D2E/DX2 analytically  !
 ! A2    A(2,1,6)              112.2804         calculate D2E/DX2 analytically  !
 ! A3    A(2,1,7)              108.0093         calculate D2E/DX2 analytically  !
 ! A4    A(3,1,6)              114.5937         calculate D2E/DX2 analytically  !
 ! A5    A(3,1,7)              101.2473         calculate D2E/DX2 analytically  !
 ! A6    A(6,1,7)              115.1863         calculate D2E/DX2 analytically  !
 ! A7    A(1,2,4)              102.8449         calculate D2E/DX2 analytically  !
 ! A8    A(1,3,5)              119.4448         calculate D2E/DX2 analytically  !
 ! A9    A(2,4,17)             113.257          calculate D2E/DX2 analytically  !
 ! A10   A(2,4,18)             108.0314         calculate D2E/DX2 analytically  !
 ! A11   A(2,4,19)             105.0624         calculate D2E/DX2 analytically  !
 ! A12   A(17,4,18)            113.0931         calculate D2E/DX2 analytically  !
 ! A13   A(17,4,19)            108.981          calculate D2E/DX2 analytically  !
 ! A14   A(18,4,19)            107.9933         calculate D2E/DX2 analytically  !
 ! A15   A(3,5,11)             106.0647         calculate D2E/DX2 analytically  !
 ! A16   A(3,5,12)             109.113          calculate D2E/DX2 analytically  !
 ! A17   A(3,5,13)             109.3651         calculate D2E/DX2 analytically  !
 ! A18   A(11,5,12)            108.5846         calculate D2E/DX2 analytically  !
 ! A19   A(11,5,13)            111.9331         calculate D2E/DX2 analytically  !
 ! A20   A(12,5,13)            111.5989         calculate D2E/DX2 analytically  !
 ! A21   A(1,7,8)              108.5695         calculate D2E/DX2 analytically  !
 ! A22   A(1,7,9)              110.1841         calculate D2E/DX2 analytically  !
 ! A23   A(1,7,10)             108.3979         calculate D2E/DX2 analytically  !
 ! A24   A(8,7,9)              109.8333         calculate D2E/DX2 analytically  !
 ! A25   A(8,7,10)             109.8283         calculate D2E/DX2 analytically  !
 ! A26   A(9,7,10)             109.9976         calculate D2E/DX2 analytically  !
 ! A27   A(5,13,14)            109.3605         calculate D2E/DX2 analytically  !
 ! A28   A(5,13,15)            110.6204         calculate D2E/DX2 analytically  !
 ! A29   A(5,13,16)            110.7502         calculate D2E/DX2 analytically  !
 ! A30   A(14,13,15)           108.543          calculate D2E/DX2 analytically  !
 ! A31   A(14,13,16)           108.5502         calculate D2E/DX2 analytically  !
 ! A32   A(15,13,16)           108.9611         calculate D2E/DX2 analytically  !
 ! A33   A(4,17,20)            106.3782         calculate D2E/DX2 analytically  !
 ! A34   A(4,17,21)            114.9736         calculate D2E/DX2 analytically  !
 ! A35   A(4,17,22)            107.8076         calculate D2E/DX2 analytically  !
 ! A36   A(20,17,21)           112.1659         calculate D2E/DX2 analytically  !
 ! A37   A(20,17,22)           106.3259         calculate D2E/DX2 analytically  !
 ! A38   A(21,17,22)           108.7658         calculate D2E/DX2 analytically  !
 ! A39   A(17,21,23)           113.0272         calculate D2E/DX2 analytically  !
 ! A40   A(17,21,24)           113.0848         calculate D2E/DX2 analytically  !
 ! A41   A(23,21,24)           114.5703         calculate D2E/DX2 analytically  !
 ! A42   A(21,23,28)           106.2517         calculate D2E/DX2 analytically  !
 ! A43   A(21,23,29)           110.3775         calculate D2E/DX2 analytically  !
 ! A44   A(21,23,30)           115.4748         calculate D2E/DX2 analytically  !
 ! A45   A(28,23,29)           107.5346         calculate D2E/DX2 analytically  !
 ! A46   A(28,23,30)           107.3249         calculate D2E/DX2 analytically  !
 ! A47   A(29,23,30)           109.504          calculate D2E/DX2 analytically  !
 ! A48   A(21,24,25)           110.9005         calculate D2E/DX2 analytically  !
 ! A49   A(21,24,26)           115.3753         calculate D2E/DX2 analytically  !
 ! A50   A(21,24,27)           105.7034         calculate D2E/DX2 analytically  !
 ! A51   A(25,24,26)           110.2072         calculate D2E/DX2 analytically  !
 ! A52   A(25,24,27)           106.8731         calculate D2E/DX2 analytically  !
 ! A53   A(26,24,27)           107.2748         calculate D2E/DX2 analytically  !
 ! A54   A(24,25,31)           110.8923         calculate D2E/DX2 analytically  !
 ! A55   A(24,25,32)           111.7492         calculate D2E/DX2 analytically  !
 ! A56   A(24,25,33)           109.9016         calculate D2E/DX2 analytically  !
 ! A57   A(31,25,32)           108.5425         calculate D2E/DX2 analytically  !
 ! A58   A(31,25,33)           108.2139         calculate D2E/DX2 analytically  !
 ! A59   A(32,25,33)           107.4116         calculate D2E/DX2 analytically  !
 ! A60   A(24,26,34)           111.9943         calculate D2E/DX2 analytically  !
 ! A61   A(24,26,35)           109.3939         calculate D2E/DX2 analytically  !
 ! A62   A(24,26,36)           111.1759         calculate D2E/DX2 analytically  !
 ! A63   A(34,26,35)           107.8237         calculate D2E/DX2 analytically  !
 ! A64   A(34,26,36)           108.5722         calculate D2E/DX2 analytically  !
 ! A65   A(35,26,36)           107.733          calculate D2E/DX2 analytically  !
 ! A66   A(23,29,37)           110.5166         calculate D2E/DX2 analytically  !
 ! A67   A(23,29,38)           111.1297         calculate D2E/DX2 analytically  !
 ! A68   A(23,29,39)           110.7083         calculate D2E/DX2 analytically  !
 ! A69   A(37,29,38)           108.2958         calculate D2E/DX2 analytically  !
 ! A70   A(37,29,39)           107.8156         calculate D2E/DX2 analytically  !
 ! A71   A(38,29,39)           108.2641         calculate D2E/DX2 analytically  !
 ! A72   A(23,30,40)           109.1467         calculate D2E/DX2 analytically  !
 ! A73   A(23,30,41)           111.3688         calculate D2E/DX2 analytically  !
 ! A74   A(23,30,42)           112.5474         calculate D2E/DX2 analytically  !
 ! A75   A(40,30,41)           107.3487         calculate D2E/DX2 analytically  !
 ! A76   A(40,30,42)           107.9761         calculate D2E/DX2 analytically  !
 ! A77   A(41,30,42)           108.266          calculate D2E/DX2 analytically  !
 ! D1    D(3,1,2,4)            133.0614         calculate D2E/DX2 analytically  !
 ! D2    D(6,1,2,4)              8.3251         calculate D2E/DX2 analytically  !
 ! D3    D(7,1,2,4)           -119.7573         calculate D2E/DX2 analytically  !
 ! D4    D(2,1,3,5)            -68.6311         calculate D2E/DX2 analytically  !
 ! D5    D(6,1,3,5)             54.6178         calculate D2E/DX2 analytically  !
 ! D6    D(7,1,3,5)            179.2431         calculate D2E/DX2 analytically  !
 ! D7    D(2,1,7,8)             67.9324         calculate D2E/DX2 analytically  !
 ! D8    D(2,1,7,9)            -52.388          calculate D2E/DX2 analytically  !
 ! D9    D(2,1,7,10)          -172.8028         calculate D2E/DX2 analytically  !
 ! D10   D(3,1,7,8)            177.3068         calculate D2E/DX2 analytically  !
 ! D11   D(3,1,7,9)             56.9864         calculate D2E/DX2 analytically  !
 ! D12   D(3,1,7,10)           -63.4284         calculate D2E/DX2 analytically  !
 ! D13   D(6,1,7,8)            -58.4691         calculate D2E/DX2 analytically  !
 ! D14   D(6,1,7,9)           -178.7895         calculate D2E/DX2 analytically  !
 ! D15   D(6,1,7,10)            60.7957         calculate D2E/DX2 analytically  !
 ! D16   D(1,2,4,17)          -108.9931         calculate D2E/DX2 analytically  !
 ! D17   D(1,2,4,18)            17.0838         calculate D2E/DX2 analytically  !
 ! D18   D(1,2,4,19)           132.1727         calculate D2E/DX2 analytically  !
 ! D19   D(1,3,5,11)           127.1467         calculate D2E/DX2 analytically  !
 ! D20   D(1,3,5,12)            10.352          calculate D2E/DX2 analytically  !
 ! D21   D(1,3,5,13)          -111.9744         calculate D2E/DX2 analytically  !
 ! D22   D(2,4,17,20)         -164.8612         calculate D2E/DX2 analytically  !
 ! D23   D(2,4,17,21)           70.3403         calculate D2E/DX2 analytically  !
 ! D24   D(2,4,17,22)          -51.1492         calculate D2E/DX2 analytically  !
 ! D25   D(18,4,17,20)          71.8049         calculate D2E/DX2 analytically  !
 ! D26   D(18,4,17,21)         -52.9936         calculate D2E/DX2 analytically  !
 ! D27   D(18,4,17,22)        -174.4832         calculate D2E/DX2 analytically  !
 ! D28   D(19,4,17,20)         -48.3134         calculate D2E/DX2 analytically  !
 ! D29   D(19,4,17,21)        -173.1119         calculate D2E/DX2 analytically  !
 ! D30   D(19,4,17,22)          65.3986         calculate D2E/DX2 analytically  !
 ! D31   D(3,5,13,14)         -179.8546         calculate D2E/DX2 analytically  !
 ! D32   D(3,5,13,15)           60.649          calculate D2E/DX2 analytically  !
 ! D33   D(3,5,13,16)          -60.2691         calculate D2E/DX2 analytically  !
 ! D34   D(11,5,13,14)         -62.6138         calculate D2E/DX2 analytically  !
 ! D35   D(11,5,13,15)         177.8897         calculate D2E/DX2 analytically  !
 ! D36   D(11,5,13,16)          56.9717         calculate D2E/DX2 analytically  !
 ! D37   D(12,5,13,14)          59.3198         calculate D2E/DX2 analytically  !
 ! D38   D(12,5,13,15)         -60.1767         calculate D2E/DX2 analytically  !
 ! D39   D(12,5,13,16)         178.9053         calculate D2E/DX2 analytically  !
 ! D40   D(4,17,21,23)        -154.442          calculate D2E/DX2 analytically  !
 ! D41   D(4,17,21,24)          73.3135         calculate D2E/DX2 analytically  !
 ! D42   D(20,17,21,23)         83.8475         calculate D2E/DX2 analytically  !
 ! D43   D(20,17,21,24)        -48.397          calculate D2E/DX2 analytically  !
 ! D44   D(22,17,21,23)        -33.4747         calculate D2E/DX2 analytically  !
 ! D45   D(22,17,21,24)       -165.7193         calculate D2E/DX2 analytically  !
 ! D46   D(17,21,23,28)       -158.0897         calculate D2E/DX2 analytically  !
 ! D47   D(17,21,23,29)         85.6115         calculate D2E/DX2 analytically  !
 ! D48   D(17,21,23,30)        -39.2426         calculate D2E/DX2 analytically  !
 ! D49   D(24,21,23,28)        -26.5769         calculate D2E/DX2 analytically  !
 ! D50   D(24,21,23,29)       -142.8757         calculate D2E/DX2 analytically  !
 ! D51   D(24,21,23,30)         92.2702         calculate D2E/DX2 analytically  !
 ! D52   D(17,21,24,25)       -155.8195         calculate D2E/DX2 analytically  !
 ! D53   D(17,21,24,26)         77.9985         calculate D2E/DX2 analytically  !
 ! D54   D(17,21,24,27)        -40.3452         calculate D2E/DX2 analytically  !
 ! D55   D(23,21,24,25)         72.6954         calculate D2E/DX2 analytically  !
 ! D56   D(23,21,24,26)        -53.4866         calculate D2E/DX2 analytically  !
 ! D57   D(23,21,24,27)       -171.8302         calculate D2E/DX2 analytically  !
 ! D58   D(21,23,29,37)       -176.8909         calculate D2E/DX2 analytically  !
 ! D59   D(21,23,29,38)         62.8465         calculate D2E/DX2 analytically  !
 ! D60   D(21,23,29,39)        -57.504          calculate D2E/DX2 analytically  !
 ! D61   D(28,23,29,37)         67.6128         calculate D2E/DX2 analytically  !
 ! D62   D(28,23,29,38)        -52.6497         calculate D2E/DX2 analytically  !
 ! D63   D(28,23,29,39)       -173.0003         calculate D2E/DX2 analytically  !
 ! D64   D(30,23,29,37)        -48.697          calculate D2E/DX2 analytically  !
 ! D65   D(30,23,29,38)       -168.9595         calculate D2E/DX2 analytically  !
 ! D66   D(30,23,29,39)         70.6899         calculate D2E/DX2 analytically  !
 ! D67   D(21,23,30,40)       -169.0265         calculate D2E/DX2 analytically  !
 ! D68   D(21,23,30,41)         72.6275         calculate D2E/DX2 analytically  !
 ! D69   D(21,23,30,42)        -49.1666         calculate D2E/DX2 analytically  !
 ! D70   D(28,23,30,40)        -50.7745         calculate D2E/DX2 analytically  !
 ! D71   D(28,23,30,41)       -169.1205         calculate D2E/DX2 analytically  !
 ! D72   D(28,23,30,42)         69.0853         calculate D2E/DX2 analytically  !
 ! D73   D(29,23,30,40)         65.6681         calculate D2E/DX2 analytically  !
 ! D74   D(29,23,30,41)        -52.6779         calculate D2E/DX2 analytically  !
 ! D75   D(29,23,30,42)       -174.4721         calculate D2E/DX2 analytically  !
 ! D76   D(21,24,25,31)         54.919          calculate D2E/DX2 analytically  !
 ! D77   D(21,24,25,32)        -66.3298         calculate D2E/DX2 analytically  !
 ! D78   D(21,24,25,33)        174.5228         calculate D2E/DX2 analytically  !
 ! D79   D(26,24,25,31)       -176.0771         calculate D2E/DX2 analytically  !
 ! D80   D(26,24,25,32)         62.6741         calculate D2E/DX2 analytically  !
 ! D81   D(26,24,25,33)        -56.4733         calculate D2E/DX2 analytically  !
 ! D82   D(27,24,25,31)        -59.826          calculate D2E/DX2 analytically  !
 ! D83   D(27,24,25,32)        178.9252         calculate D2E/DX2 analytically  !
 ! D84   D(27,24,25,33)         59.7778         calculate D2E/DX2 analytically  !
 ! D85   D(21,24,26,34)        -53.7924         calculate D2E/DX2 analytically  !
 ! D86   D(21,24,26,35)       -173.2753         calculate D2E/DX2 analytically  !
 ! D87   D(21,24,26,36)         67.8653         calculate D2E/DX2 analytically  !
 ! D88   D(25,24,26,34)        179.6724         calculate D2E/DX2 analytically  !
 ! D89   D(25,24,26,35)         60.1895         calculate D2E/DX2 analytically  !
 ! D90   D(25,24,26,36)        -58.6698         calculate D2E/DX2 analytically  !
 ! D91   D(27,24,26,34)         63.6729         calculate D2E/DX2 analytically  !
 ! D92   D(27,24,26,35)        -55.81           calculate D2E/DX2 analytically  !
 ! D93   D(27,24,26,36)       -174.6694         calculate D2E/DX2 analytically  !
 --------------------------------------------------------------------------------
 Trust Radius=3.00D-01 FncErr=1.00D-07 GrdErr=1.00D-07
 Number of steps in this run=      2 maximum allowed number of steps=      2.
 GradGradGradGradGradGradGradGradGradGradGradGradGradGradGradGradGradGrad

 Leave Link  103 at Thu Jul 18 16:37:43 2019, MaxMem=  5898240000 cpu:         0.1
 (Enter /apps/gaussian/g09_d01/g09/l202.exe)
                          Input orientation:                          
 ---------------------------------------------------------------------
 Center     Atomic      Atomic             Coordinates (Angstroms)
 Number     Number       Type             X           Y           Z
 ---------------------------------------------------------------------
      1         15           0       -2.341334   -0.370787    0.302222
      2         16           0       -1.207411   -1.687181   -0.887544
      3          8           0       -2.617117    0.891432   -0.649600
      4          6           0        0.162717   -2.176665    0.236447
      5          6           0       -1.510760    1.756684   -1.028403
      6          8           0       -1.657904   -0.040473    1.592840
      7          6           0       -3.986235   -1.050741    0.464865
      8          1           0       -3.928298   -1.960632    1.063143
      9          1           0       -4.397477   -1.280226   -0.518729
     10          1           0       -4.614920   -0.314804    0.969974
     11          1           0       -1.535866    1.819629   -2.116409
     12          1           0       -0.570619    1.287495   -0.728309
     13          6           0       -1.688458    3.108918   -0.381076
     14          1           0       -0.858747    3.759601   -0.667742
     15          1           0       -1.697234    3.016257    0.707111
     16          1           0       -2.621796    3.573138   -0.705058
     17          6           0        1.509355   -1.582284   -0.161412
     18          1           0       -0.130637   -1.926021    1.254368
     19          1           0        0.217903   -3.262906    0.159616
     20          1           0        2.275652   -2.149079    0.393586
     21          7           0        1.632139   -0.146703    0.043926
     22          1           0        1.671612   -1.801034   -1.218832
     23          6           0        2.627913    0.483626   -0.852731
     24          6           0        1.764655    0.225299    1.466317
     25          6           0        1.301874    1.662130    1.699147
     26          6           0        3.156642    0.011743    2.074785
     27          1           0        1.070855   -0.423124    2.007570
     28          1           0        2.924020    1.418248   -0.371624
     29          6           0        1.986999    0.838910   -2.193308
     30          6           0        3.908164   -0.331642   -1.095981
     31          1           0        0.285038    1.807646    1.331965
     32          1           0        1.957159    2.384230    1.203890
     33          1           0        1.314672    1.888549    2.768615
     34          1           0        3.514222   -1.010373    1.929645
     35          1           0        3.115761    0.202337    3.150296
     36          1           0        3.887170    0.701197    1.641778
     37          1           0        2.732857    1.253996   -2.876613
     38          1           0        1.191114    1.575474   -2.066153
     39          1           0        1.558605   -0.051066   -2.665560
     40          1           0        4.644131    0.298936   -1.601338
     41          1           0        3.715966   -1.191401   -1.743536
     42          1           0        4.355078   -0.694401   -0.169983
 ---------------------------------------------------------------------
                    Distance matrix (angstroms):
                    1          2          3          4          5
     1  P    0.000000
     2  S    2.105759   0.000000
     3  O    1.604749   2.948413   0.000000
     4  C    3.088008   1.838532   4.233885   0.000000
     5  C    2.643208   3.460068   1.454710   4.457758   0.000000
     6  O    1.497291   3.011129   2.610953   3.117335   3.181563
     7  C    1.787313   3.155302   2.624605   4.305076   4.029822
     8  H    2.371722   3.359045   3.575885   4.179295   4.902805
     9  H    2.393483   3.236999   2.811211   4.708425   4.220868
    10  H    2.370279   4.116420   2.840641   5.179807   4.233248
    11  H    3.361023   3.730376   2.045039   4.938773   1.090114
    12  H    2.635778   3.046237   2.085957   3.670006   1.092730
    13  C    3.605758   4.846699   2.419041   5.634321   1.509684
    14  H    4.494329   5.462354   3.364311   6.090993   2.137024
    15  H    3.471435   4.990509   2.683604   5.536008   2.152512
    16  H    4.080174   5.450206   2.682284   6.457568   2.153708
    17  C    4.063310   2.814087   4.835842   1.524800   4.584918
    18  H    2.865749   2.409206   4.212567   1.088597   4.547318
    19  H    3.864503   2.368749   5.094182   1.090352   5.440216
    20  H    4.948458   3.739836   5.854241   2.118950   5.622629
    21  N    3.988160   3.362105   4.428869   2.513366   3.827608
    22  H    4.523599   2.900256   5.095743   2.129718   4.777145
    23  C    5.172751   4.407190   5.264780   3.786905   4.333607
    24  C    4.309243   4.246341   4.911289   3.138186   4.392847
    25  C    4.399672   4.919895   4.633474   4.263041   3.919104
    26  C    5.789305   5.541362   6.444565   4.139106   5.870199
    27  H    3.814969   3.894872   4.731781   2.652640   4.542404
    28  H    5.601666   5.194091   5.573061   4.573614   4.495905
    29  C    5.140574   4.276728   4.856303   4.280818   3.799161
    30  C    6.404118   5.296228   6.653905   4.382676   5.807788
    31  H    3.564235   4.400846   3.631605   4.133988   2.966281
    32  H    5.184609   5.564619   5.156343   4.995771   4.171739
    33  H    4.955207   5.702127   5.304470   4.925936   4.734744
    34  H    6.111065   5.539715   6.918287   3.931888   6.454231
    35  H    6.182223   6.210011   6.912304   4.782325   6.425123
    36  H    6.460482   6.169001   6.898722   4.912087   6.114047
    37  H    6.204219   5.304020   5.806313   5.297754   4.655842
    38  H    4.677106   4.217459   4.120335   4.520853   2.899980
    39  H    4.911158   3.672745   4.731708   3.858539   3.920363
    40  H    7.271093   6.220507   7.347284   5.439589   6.351060
    41  H    6.445884   5.021769   6.755948   4.185291   6.043284
    42  H    6.720836   5.695770   7.166339   4.465220   6.415041
                    6          7          8          9         10
     6  O    0.000000
     7  C    2.777426   0.000000
     8  H    3.020311   1.090501   0.000000
     9  H    3.674367   1.090523   1.784769   0.000000
    10  H    3.034331   1.091780   1.785743   1.787612   0.000000
    11  H    4.151313   4.572342   5.488502   4.511153   4.854085
    12  H    2.886767   4.307835   5.003363   4.613237   4.669893
    13  C    3.716980   4.826817   5.727390   5.159682   4.702275
    14  H    4.493266   5.848364   6.718569   6.159924   5.778557
    15  H    3.182712   4.673187   5.465695   5.220513   4.435984
    16  H    4.389488   4.960915   5.954502   5.171354   4.679142
    17  C    3.935239   5.556641   5.586659   5.925333   6.355571
    18  H    2.449979   4.031756   3.802630   4.665495   4.773436
    19  H    3.994603   4.760422   4.438836   5.068817   5.718755
    20  H    4.621395   6.357881   6.242822   6.791014   7.153794
    21  N    3.637966   5.706189   5.936969   6.160984   6.317560
    22  H    4.700080   5.950547   6.049122   6.131495   6.820575
    23  C    4.962230   6.916451   7.254576   7.251127   7.511217
    24  C    3.435193   5.975275   6.111510   6.646719   6.421607
    25  C    3.416203   6.070191   6.394029   6.786680   6.280797
    26  C    4.838889   7.398743   7.423615   8.090748   7.856488
    27  H    2.786494   5.324284   5.314829   6.084363   5.780690
    28  H    5.194325   7.385610   7.773651   7.804339   7.851049
    29  C    5.328559   6.805599   7.309764   6.932278   7.410988
    30  C    6.188348   8.079286   8.290088   8.379540   8.769915
    31  H    2.694183   5.212103   5.659010   5.906435   5.352142
    32  H    4.370257   6.904282   7.316847   7.535055   7.108567
    33  H    3.733602   6.484312   6.724104   7.312757   6.576468
    34  H    5.273047   7.642255   7.552809   8.286274   8.215092
    35  H    5.027176   7.695458   7.658552   8.491671   8.048892
    36  H    5.594669   8.151375   8.276576   8.788015   8.588895
    37  H    6.397690   7.850063   8.380126   7.926132   8.440806
    38  H    4.910847   6.333088   6.964548   6.463892   6.819183
    39  H    5.336667   6.445476   6.903317   6.449390   7.169316
    40  H    7.073444   8.976304   9.256979   9.242103   9.629037
    41  H    6.429193   8.013783   8.179483   8.205852   8.805409
    42  H    6.300089   8.373023   8.469845   8.779068   9.050109
                   11         12         13         14         15
    11  H    0.000000
    12  H    1.772481   0.000000
    13  C    2.167241   2.165114   0.000000
    14  H    2.514084   2.489577   1.092696   0.000000
    15  H    3.070867   2.513625   1.092160   1.773652   0.000000
    16  H    2.499191   3.071162   1.091597   1.773275   1.777400
    17  C    4.966728   3.589330   5.681693   5.865152   5.673017
    18  H    5.231319   3.801484   5.518342   6.045737   5.213427
    19  H    5.838506   4.702800   6.672833   7.152572   6.587517
    20  H    6.048007   4.601081   6.630295   6.772250   6.524018
    21  N    4.309265   2.739601   4.669696   4.687237   4.639920
    22  H    4.919630   3.848016   6.008289   6.134091   6.185845
    23  C    4.551795   3.300347   5.074020   4.787800   5.249212
    24  C    5.125549   3.376114   4.863343   4.891598   4.511155
    25  C    4.757735   3.088547   3.919516   3.830121   3.436924
    26  C    6.546311   4.835013   6.252898   6.139319   5.870072
    27  H    5.369557   3.620178   5.078854   5.326898   4.602483
    28  H    4.805826   3.515227   4.912576   4.458581   5.007324
    29  C    3.657635   2.981419   4.684667   4.353855   5.169801
    30  C    5.941944   4.776639   6.608382   6.296435   6.773482
    31  H    3.899631   2.290728   2.919333   3.019470   2.404285
    32  H    4.852256   3.365395   4.040769   3.650202   3.741770
    33  H    5.656304   4.017968   4.519806   4.475839   3.820092
    34  H    7.062779   5.388028   7.026797   6.972942   6.698329
    35  H    7.210509   5.459903   6.633198   6.559592   6.087053
    36  H    6.692099   5.082612   6.401304   6.100118   6.117081
    37  H    4.372625   3.940722   5.405227   4.904772   5.964424
    38  H    2.738350   2.230798   3.671903   3.305737   4.255515
    39  H    3.657433   3.174631   5.074228   4.935185   5.602131
    40  H    6.385152   5.378945   7.034680   6.567303   7.275004
    41  H    6.065235   5.054743   7.039662   6.826254   7.280989
    42  H    6.694187   5.338739   7.143817   6.875308   7.153234
                   16         17         18         19         20
    16  H    0.000000
    17  C    6.628751   0.000000
    18  H    6.347123   2.193664   0.000000
    19  H    7.452721   2.143688   1.762732   0.000000
    20  H    7.611556   1.102947   2.565332   2.351528   0.000000
    21  N    5.700365   1.455380   2.781820   3.424057   2.132107
    22  H    6.897757   1.091932   3.062751   2.480011   1.756671
    23  C    6.093139   2.448893   4.225620   4.568314   2.934030
    24  C    5.929911   2.445819   2.874931   4.033296   2.655096
    25  C    4.982704   3.745791   3.889054   5.272677   4.144641
    26  C    7.334944   3.202351   3.903103   4.798686   2.876060
    27  H    6.079814   2.498083   2.066300   3.493827   2.652433
    28  H    5.959094   3.323952   4.812371   5.433091   3.705637
    29  C    5.561644   3.196705   4.900581   5.048845   3.962754
    30  C    7.618432   2.862134   4.937418   4.877177   2.861290
    31  H    3.964355   3.901378   3.757536   5.204748   4.527557
    32  H    5.101413   4.218745   4.789541   6.000472   4.616158
    33  H    5.513622   4.546388   4.351185   5.877693   4.781912
    34  H    8.099441   2.952811   3.818299   4.367222   2.278197
    35  H    7.690618   4.090577   4.320133   5.417532   3.719460
    36  H    7.491484   3.757630   4.816133   5.601289   3.504147
    37  H    6.226266   4.112634   5.947866   5.995505   4.741746
    38  H    4.514591   3.701452   5.003334   5.413973   4.593346
    39  H    5.869769   2.935611   4.662064   4.482746   3.778120
    40  H    8.019815   3.929274   5.991987   5.948039   3.947428
    41  H    7.996656   2.743181   4.931882   4.488827   2.749353
    42  H    8.196034   2.981032   4.864906   4.880786   2.599560
                   21         22         23         24         25
    21  N    0.000000
    22  H    2.081568   0.000000
    23  C    1.480836   2.503640   0.000000
    24  C    1.476191   3.365219   2.487957   0.000000
    25  C    2.474007   4.543656   3.107947   1.527371   0.000000
    26  C    2.544328   4.042201   3.012072   1.534102   2.510985
    27  H    2.060909   3.559384   3.380524   1.093053   2.120561
    28  H    2.071403   3.556693   1.092090   2.478968   2.641766
    29  C    2.470339   2.831674   1.527791   3.717366   4.037114
    30  C    2.552230   2.678874   1.537165   3.386766   4.310524
    31  H    2.700593   4.631600   3.466264   2.170516   1.090849
    32  H    2.802994   4.844332   2.879564   2.183325   1.093667
    33  H    3.415694   5.444278   4.100312   2.159831   1.093248
    34  H    2.800732   3.732729   3.280121   2.191470   3.477051
    35  H    3.460129   5.018798   4.042442   2.159120   2.743540
    36  H    2.890888   4.399199   2.802792   2.182278   2.758703
    37  H    3.420978   3.634238   2.168083   4.566911   4.811639
    38  H    2.759135   3.514205   2.174607   3.824953   3.767925
    39  H    2.712171   2.273364   2.171558   4.146232   4.695916
    40  H    3.460865   3.659516   2.158624   4.208006   4.891031
    41  H    2.937474   2.196896   2.187032   4.014699   5.081589
    42  H    2.785701   3.086375   2.199316   3.199003   4.285901
                   26         27         28         29         30
    26  C    0.000000
    27  H    2.131697   0.000000
    28  H    2.831481   3.533473   0.000000
    29  C    4.502098   4.481007   2.128890   0.000000
    30  C    3.276653   4.206033   2.134326   2.503037   0.000000
    31  H    3.467442   2.459733   3.165133   4.032700   4.857830
    32  H    2.797483   3.051667   2.085709   3.732272   4.058544
    33  H    2.719679   2.445909   3.559815   5.116097   5.156603
    34  H    1.092543   2.514155   3.397407   4.769801   3.125745
    35  H    1.093033   2.424595   3.730834   5.498493   4.352459
    36  H    1.093853   3.054428   2.344272   4.282231   2.926179
    37  H    5.122415   5.424963   2.517636   1.093393   2.658240
    38  H    4.843131   4.539171   2.428808   1.091845   3.458422
    39  H    5.002853   4.713223   3.047193   1.094806   2.839494
    40  H    3.976051   5.129706   2.392455   2.775312   1.093006
    41  H    4.042274   4.653779   3.052800   2.704401   1.093368
    42  H    2.640810   3.949867   2.559662   3.471698   1.090320
                   31         32         33         34         35
    31  H    0.000000
    32  H    1.773370   0.000000
    33  H    1.769366   1.762627   0.000000
    34  H    4.327364   3.804536   3.734386   0.000000
    35  H    3.727779   3.145077   2.496580   1.766189   0.000000
    36  H    3.780948   2.597939   3.049150   1.775227   1.766227
    37  H    4.900049   4.304607   5.855127   5.370104   6.129945
    38  H    3.524497   3.454575   4.846469   5.296209   5.727225
    39  H    4.588790   4.589352   5.775108   5.085334   6.026037
    40  H    5.466458   4.408806   5.719148   3.931771   4.992321
    41  H    5.497659   4.956395   5.967564   3.683169   5.123704
    42  H    5.008124   4.137089   4.954903   2.283707   3.655721
                   36         37         38         39         40
    36  H    0.000000
    37  H    4.696156   0.000000
    38  H    4.667101   1.771205   0.000000
    39  H    4.953916   1.768219   1.771996   0.000000
    40  H    3.354490   2.488260   3.710651   3.282612   0.000000
    41  H    3.882215   2.868855   3.759595   2.608582   1.761481
    42  H    2.334333   3.708597   4.331103   3.802900   1.766082
                   41         42
    41  H    0.000000
    42  H    1.769616   0.000000
 Stoichiometry    C11H26NO2PS
 Framework group  C1[X(C11H26NO2PS)]
 Deg. of freedom   120
 Full point group                 C1      NOp   1
 RotChk:  IX=0 Diff= 7.57D-16
 Largest Abelian subgroup         C1      NOp   1
 Largest concise Abelian subgroup C1      NOp   1
                         Standard orientation:                         
 ---------------------------------------------------------------------
 Center     Atomic      Atomic             Coordinates (Angstroms)
 Number     Number       Type             X           Y           Z
 ---------------------------------------------------------------------
      1         15           0       -2.334324   -0.347783    0.285011
      2         16           0       -1.225527   -1.613629   -0.980858
      3          8           0       -2.592013    0.970139   -0.593565
      4          6           0        0.139532   -2.187564    0.108828
      5          6           0       -1.472662    1.837188   -0.927420
      6          8           0       -1.641933   -0.101509    1.589550
      7          6           0       -3.989707   -1.008982    0.415438
      8          1           0       -3.945042   -1.951812    0.961579
      9          1           0       -4.407428   -1.176237   -0.577928
     10          1           0       -4.604796   -0.292415    0.963325
     11          1           0       -1.499792    1.961447   -2.010090
     12          1           0       -0.539515    1.336701   -0.657592
     13          6           0       -1.626304    3.153701   -0.204693
     14          1           0       -0.786827    3.805873   -0.457546
     15          1           0       -1.633540    3.000316    0.876619
     16          1           0       -2.552799    3.650457   -0.498675
     17          6           0        1.494627   -1.593757   -0.260125
     18          1           0       -0.146802   -1.989666    1.140279
     19          1           0        0.176652   -3.268539   -0.028945
     20          1           0        2.253069   -2.203155    0.259385
     21          7           0        1.641551   -0.174134    0.024859
     22          1           0        1.650294   -1.755471   -1.328737
     23          6           0        2.645019    0.489230   -0.838782
     24          6           0        1.784160    0.115315    1.465353
     25          6           0        1.345699    1.544155    1.780041
     26          6           0        3.174158   -0.154607    2.055707
     27          1           0        1.081329   -0.551085    1.972012
     28          1           0        2.957789    1.390468   -0.307176
     29          6           0        2.006258    0.929494   -2.154949
     30          6           0        3.911016   -0.331801   -1.132098
     31          1           0        0.330363    1.726530    1.425382
     32          1           0        2.011362    2.282153    1.323577
     33          1           0        1.365223    1.710006    2.860459
     34          1           0        3.514491   -1.172648    1.852198
     35          1           0        3.139438   -0.023987    3.140351
     36          1           0        3.914692    0.546088    1.659285
     37          1           0        2.756910    1.370077   -2.816703
     38          1           0        1.222941    1.670598   -1.983761
     39          1           0        1.561978    0.074478   -2.674720
     40          1           0        4.655818    0.314087   -1.604074
     41          1           0        3.702902   -1.150658   -1.826083
     42          1           0        4.354515   -0.753128   -0.229551
 ---------------------------------------------------------------------
 Rotational constants (GHZ):      0.5915223      0.2923758      0.2699950
 Leave Link  202 at Thu Jul 18 16:37:43 2019, MaxMem=  5898240000 cpu:         0.1
 (Enter /apps/gaussian/g09_d01/g09/l301.exe)
 Standard basis: 6-311++G(d,p) (5D, 7F)
 Ernie: Thresh=  0.10000D-02 Tol=  0.10000D-05 Strict=F.
 There are   566 symmetry adapted cartesian basis functions of A   symmetry.
 There are   550 symmetry adapted basis functions of A   symmetry.
   550 basis functions,   838 primitive gaussians,   566 cartesian basis functions
    73 alpha electrons       73 beta electrons
       nuclear repulsion energy      1608.4580968340 Hartrees.
 IExCor= 4336 DFT=T Ex+Corr=M062X ExCW=0 ScaHFX=  0.540000
 ScaDFX=  1.000000  1.000000  1.000000  1.000000 ScalE2=  1.000000  1.000000
 IRadAn=      5 IRanWt=     -1 IRanGd=            0 ICorTp=0 IEmpDi=  4
 NAtoms=   42 NActive=   42 NUniq=   42 SFac= 1.00D+00 NAtFMM=   60 NAOKFM=F Big=F
 Integral buffers will be    131072 words long.
 Raffenetti 2 integral format.
 Two-electron integral symmetry is turned on.
 Force inversion solution in PCM.
 ------------------------------------------------------------------------------
 Polarizable Continuum Model (PCM)
 =================================
 Model                : PCM (using non-symmetric T matrix).
 Atomic radii         : SMD-Coulomb.
 Polarization charges : Total charges.
 Charge compensation  : None.
 Solution method      : Matrix inversion.
 Cavity type          : VdW (van der Waals Surface) (Alpha=1.000).
 Cavity algorithm     : GePol (No added spheres)
                        Default sphere list used, NSphG=   42.
                        Lebedev-Laikov grids with approx.  5.0 points / Ang**2.
                        Smoothing algorithm: Karplus/York (Gamma=1.0000).
                        Polarization charges: spherical gaussians, with
                                              point-specific exponents (IZeta= 3).
                        Self-potential: point-specific (ISelfS= 7).
                        Self-field    : sphere-specific E.n sum rule (ISelfD= 2).
 1st derivatives      : Analytical E(r).r(x)/FMM algorithm (CHGder, D1EAlg=3).
                        Cavity 1st derivative terms included.
 2nd derivatives      : Analytical E(r).r(xy)/FMM algorithm (CHGder, D2EAlg=3).
                        Cavity 2nd derivative terms included.
 Solvent              : Water, Eps=  78.355300 Eps(inf)=   1.777849
 ------------------------------------------------------------------------------
 GePol: Number of generator spheres                  =      42
 GePol: Total number of spheres                      =      42
 GePol: Number of exposed spheres                    =      42 (100.00%)
 GePol: Number of points                             =    2819
 GePol: Average weight of points                     =       0.11
 GePol: Minimum weight of points                     =   0.20D-10
 GePol: Maximum weight of points                     =    0.21991
 GePol: Number of points with low weight             =     169
 GePol: Fraction of low-weight points (<1% of avg)   =       6.00%
 GePol: Cavity surface area                          =    319.742 Ang**2
 GePol: Cavity volume                                =    301.349 Ang**3
 ------------------------------------------------------------------------------
 Atomic radii for non-electrostatic terms: SMD-CDS.
 ------------------------------------------------------------------------------
 PCM non-electrostatic energy =         0.0124805069 Hartrees.
 Nuclear repulsion after PCM non-electrostatic terms =     1608.4705773409 Hartrees.
 Leave Link  301 at Thu Jul 18 16:37:43 2019, MaxMem=  5898240000 cpu:         0.9
 (Enter /apps/gaussian/g09_d01/g09/l302.exe)
 NPDir=0 NMtPBC=     1 NCelOv=     1 NCel=       1 NClECP=     1 NCelD=      1
         NCelK=      1 NCelE2=     1 NClLst=     1 CellRange=     0.0.
 One-electron integrals computed using PRISM.
 NBasis=   550 RedAO= T EigKep=  4.45D-06  NBF=   550
 NBsUse=   550 1.00D-06 EigRej= -1.00D+00 NBFU=   550
 Precomputing XC quadrature grid using
 IXCGrd= 4 IRadAn=           5 IRanWt=          -1 IRanGd=           0 AccXCQ= 0.00D+00.
 Generated NRdTot=       0 NPtTot=           0 NUsed=           0 NTot=          32
 NSgBfM=   565   566   566   566   566 MxSgAt=    42 MxSgA2=    42.
 Leave Link  302 at Thu Jul 18 16:37:44 2019, MaxMem=  5898240000 cpu:        11.3
 (Enter /apps/gaussian/g09_d01/g09/l303.exe)
 DipDrv:  MaxL=1.
 Leave Link  303 at Thu Jul 18 16:37:44 2019, MaxMem=  5898240000 cpu:         1.2
 (Enter /apps/gaussian/g09_d01/g09/l401.exe)
 Initial guess from the checkpoint file:  "vx_sp.chk"
 B after Tr=     0.000000    0.000000    0.000000
         Rot=    1.000000    0.000000    0.000000    0.000000 Ang=   0.00 deg.
 Guess basis will be translated and rotated to current coordinates.
 JPrj=2 DoOrth=T DoCkMO=T.
 Leave Link  401 at Thu Jul 18 16:37:45 2019, MaxMem=  5898240000 cpu:        10.2
 (Enter /apps/gaussian/g09_d01/g09/l502.exe)
 Closed shell SCF:
 Using DIIS extrapolation, IDIIS=  1040.
 Integral symmetry usage will be decided dynamically.
 IVT=      990680 IEndB=      990680 NGot=  5898240000 MDV=  5897586883
 LenX=  5897586883 LenY=  5897265961
 Requested convergence on RMS density matrix=1.00D-09 within 128 cycles.
 Requested convergence on MAX density matrix=1.00D-07.
 Requested convergence on             energy=1.00D-07.
 No special actions if energy rises.
 Fock matrices will be formed incrementally for  20 cycles.

 Cycle   1  Pass 1  IDiag  1:
 FoFJK:  IHMeth= 1 ICntrl=       0 DoSepK=F KAlg= 0 I1Cent=   0 FoldK=F
 IRaf= 880000000 NMat=   1 IRICut=       1 DoRegI=T DoRafI=F ISym2E= 0.
 FoFCou: FMM=F IPFlag=           0 FMFlag=      100000 FMFlg1=           0
         NFxFlg=           0 DoJE=F BraDBF=F KetDBF=F FulRan=T
         wScrn=  0.000000 ICntrl=       0 IOpCl=  0 I1Cent=           0 NGrid=           0
         NMat0=    1 NMatS0=      1 NMatT0=    0 NMatD0=    1 NMtDS0=    0 NMtDT0=    0
 Symmetry not used in FoFCou.
 Inv3:  Mode=1 IEnd=    23840283.
 Iteration    1 A*A^-1 deviation from unit magnitude is 7.33D-15 for   2813.
 Iteration    1 A*A^-1 deviation from orthogonality  is 4.58D-15 for   1980    207.
 Iteration    1 A^-1*A deviation from unit magnitude is 7.33D-15 for    469.
 Iteration    1 A^-1*A deviation from orthogonality  is 1.89D-10 for   1633   1594.
 Iteration    2 A*A^-1 deviation from unit magnitude is 9.99D-15 for    465.
 Iteration    2 A*A^-1 deviation from orthogonality  is 5.40D-15 for   2210   1173.
 Iteration    2 A^-1*A deviation from unit magnitude is 1.55D-15 for    891.
 Iteration    2 A^-1*A deviation from orthogonality  is 8.58D-16 for   2778    438.
 E= -1379.51336787443    
 DIIS: error= 2.25D-10 at cycle   1 NSaved=   1.
 NSaved= 1 IEnMin= 1 EnMin= -1379.51336787443     IErMin= 1 ErrMin= 2.25D-10
 ErrMax= 2.25D-10  0.00D+00 EMaxC= 1.00D-01 BMatC= 3.72D-17 BMatP= 3.72D-17
 IDIUse=1 WtCom= 1.00D+00 WtEn= 0.00D+00
 Coeff-Com:  0.100D+01
 Coeff:      0.100D+01
 Gap=     0.264 Goal=   None    Shift=    0.000
 RMSDP=1.99D-10 MaxDP=2.71D-08              OVMax= 2.94D-09

 Error on total polarization charges =  0.06379
 SCF Done:  E(RM062X) =  -1379.51336787     A.U. after    1 cycles
            NFock=  1  Conv=0.20D-09     -V/T= 2.0026
 KE= 1.375867553602D+03 PE=-6.466958869367D+03 EE= 2.103107370550D+03
 SMD-CDS (non-electrostatic) energy       (kcal/mol) =       7.83
 (included in total energy above)
 Leave Link  502 at Thu Jul 18 16:38:29 2019, MaxMem=  5898240000 cpu:       506.5
 (Enter /apps/gaussian/g09_d01/g09/l801.exe)
 DoSCS=F DFT=T ScalE2(SS,OS)=  1.000000  1.000000
 Range of M.O.s used for correlation:     1   550
 NBasis=   550 NAE=    73 NBE=    73 NFC=     0 NFV=     0
 NROrb=    550 NOA=    73 NOB=    73 NVA=   477 NVB=   477

 **** Warning!!: The largest alpha MO coefficient is  0.86783844D+02

 Leave Link  801 at Thu Jul 18 16:38:29 2019, MaxMem=  5898240000 cpu:         0.3
 (Enter /apps/gaussian/g09_d01/g09/l1101.exe)
 Using compressed storage, NAtomX=    42.
 Will process     43 centers per pass.
 Leave Link 1101 at Thu Jul 18 16:38:30 2019, MaxMem=  5898240000 cpu:        12.6
 (Enter /apps/gaussian/g09_d01/g09/l1102.exe)
 Symmetrizing basis deriv contribution to polar:
 IMax=3 JMax=2 DiffMx= 0.00D+00
 Leave Link 1102 at Thu Jul 18 16:38:30 2019, MaxMem=  5898240000 cpu:         1.0
 (Enter /apps/gaussian/g09_d01/g09/l1110.exe)
 Forming Gx(P) for the SCF density, NAtomX=    42.
 Integral derivatives from FoFJK, PRISM(SPDF).
 Do as many integral derivatives as possible in FoFJK.
 G2DrvN: MDV=    5898239560.
 G2DrvN: will do    43 centers at a time, making    1 passes.
 Calling FoFCou, ICntrl=  3107 FMM=F I1Cent=   0 AccDes= 0.00D+00.
 FoFJK:  IHMeth= 1 ICntrl=    3107 DoSepK=F KAlg= 0 I1Cent=   0 FoldK=F
 IRaf=         0 NMat=   1 IRICut=       1 DoRegI=T DoRafI=F ISym2E= 0.
 FoFCou: FMM=F IPFlag=           0 FMFlag=      100000 FMFlg1=           0
         NFxFlg=           0 DoJE=F BraDBF=F KetDBF=F FulRan=T
         wScrn=  0.000000 ICntrl=    3107 IOpCl=  0 I1Cent=           0 NGrid=           0
         NMat0=    1 NMatS0=      1 NMatT0=    0 NMatD0=    1 NMtDS0=    0 NMtDT0=    0
 Symmetry not used in FoFCou.
 NEqPCM:  Using equilibrium solvation (IEInf=0, Eps=  78.3553, EpsInf=   1.7778)
 G2PCM: DoFxE=T DoFxN=T DoGrad=T DoDP/DQ/DG/TGxP=FFFF NFrqRd=   0 IEInf=0 SqF1=F DoCFld=F IF1Alg=4.
 GePol: Maximum number of non-zero 1st derivatives   =     326
 End of G2Drv F.D. properties file   721 does not exist.
 End of G2Drv F.D. properties file   722 does not exist.
 End of G2Drv F.D. properties file   788 does not exist.
 Leave Link 1110 at Thu Jul 18 17:11:56 2019, MaxMem=  5898240000 cpu:     24068.3
 (Enter /apps/gaussian/g09_d01/g09/l1002.exe)
 Minotr:  Closed shell wavefunction.
          IDoAtm=111111111111111111111111111111111111111111
 NEqPCM:  Using equilibrium solvation (IEInf=0, Eps=  78.3553, EpsInf=   1.7778)
          Direct CPHF calculation.
          Differentiating once with respect to electric field.
                with respect to dipole field.
          Differentiating once with respect to nuclear coordinates.
          Requested convergence is 1.0D-08 RMS, and 1.0D-07 maximum.
          Secondary convergence is 1.0D-12 RMS, and 1.0D-12 maximum.
          NewPWx=T KeepS1=F KeepF1=F KeepIn=T MapXYZ=F SortEE=F KeepMc=T.
          MDV=    5898239026 using IRadAn=       1.
 Generate precomputed XC quadrature information.
          Solving linear equations simultaneously, MaxMat=       0.
 FoFJK:  IHMeth= 1 ICntrl=       0 DoSepK=F KAlg= 0 I1Cent=   0 FoldK=F
 IRaf= 870000000 NMat= 129 IRICut=     322 DoRegI=T DoRafI=T ISym2E= 2.
 FoFCou: FMM=F IPFlag=           0 FMFlag=      100000 FMFlg1=           0
         NFxFlg=           0 DoJE=F BraDBF=F KetDBF=F FulRan=T
         wScrn=  0.000000 ICntrl=       0 IOpCl=  0 I1Cent=           0 NGrid=           0
         NMat0=  129 NMatS0=    129 NMatT0=    0 NMatD0=  129 NMtDS0=    0 NMtDT0=    0
 Integrals replicated using symmetry in FoFCou.
          There are   129 degrees of freedom in the 1st order CPHF.  IDoFFX=6 NUNeed=     3.
    126 vectors produced by pass  0 Test12= 3.48D-14 1.00D-09 XBig12= 9.47D+01 1.13D+00.
 AX will form   126 AO Fock derivatives at one time.
    126 vectors produced by pass  1 Test12= 3.48D-14 1.00D-09 XBig12= 5.87D+00 1.71D-01.
    126 vectors produced by pass  2 Test12= 3.48D-14 1.00D-09 XBig12= 1.05D-01 2.11D-02.
    126 vectors produced by pass  3 Test12= 3.48D-14 1.00D-09 XBig12= 1.02D-03 1.99D-03.
    126 vectors produced by pass  4 Test12= 3.48D-14 1.00D-09 XBig12= 6.63D-06 2.26D-04.
    126 vectors produced by pass  5 Test12= 3.48D-14 1.00D-09 XBig12= 2.81D-08 1.04D-05.
     74 vectors produced by pass  6 Test12= 3.48D-14 1.00D-09 XBig12= 1.06D-10 5.50D-07.
     11 vectors produced by pass  7 Test12= 3.48D-14 1.00D-09 XBig12= 3.45D-13 3.74D-08.
      3 vectors produced by pass  8 Test12= 3.48D-14 1.00D-09 XBig12= 1.95D-15 3.48D-09.
      3 vectors produced by pass  9 Test12= 3.48D-14 1.00D-09 XBig12= 7.69D-16 2.47D-09.
      3 vectors produced by pass 10 Test12= 3.48D-14 1.00D-09 XBig12= 2.80D-15 5.70D-09.
      3 vectors produced by pass 11 Test12= 3.48D-14 1.00D-09 XBig12= 7.41D-15 1.07D-08.
      3 vectors produced by pass 12 Test12= 3.48D-14 1.00D-09 XBig12= 1.24D-15 3.07D-09.
      2 vectors produced by pass 13 Test12= 3.48D-14 1.00D-09 XBig12= 2.00D-15 3.99D-09.
 InvSVY:  IOpt=1 It=  1 EMax= 1.07D-14
 Solved reduced A of dimension   858 with   129 vectors.
 FullF1:  Do perturbations    1 to     3.
 Isotropic polarizability for W=    0.000000      264.57 Bohr**3.
 End of Minotr F.D. properties file   721 does not exist.
 End of Minotr F.D. properties file   722 does not exist.
 End of Minotr F.D. properties file   788 does not exist.
 Leave Link 1002 at Thu Jul 18 18:33:19 2019, MaxMem=  5898240000 cpu:     58580.5
 (Enter /apps/gaussian/g09_d01/g09/l601.exe)
 Copying SCF densities to generalized density rwf, IOpCl= 0 IROHF=0.

 **********************************************************************

            Population analysis using the SCF density.

 **********************************************************************

 Orbital symmetries:
       Occupied  (A) (A) (A) (A) (A) (A) (A) (A) (A) (A) (A) (A)
                 (A) (A) (A) (A) (A) (A) (A) (A) (A) (A) (A) (A)
                 (A) (A) (A) (A) (A) (A) (A) (A) (A) (A) (A) (A)
                 (A) (A) (A) (A) (A) (A) (A) (A) (A) (A) (A) (A)
                 (A) (A) (A) (A) (A) (A) (A) (A) (A) (A) (A) (A)
                 (A) (A) (A) (A) (A) (A) (A) (A) (A) (A) (A) (A)
                 (A)
       Virtual   (A) (A) (A) (A) (A) (A) (A) (A) (A) (A) (A) (A)
                 (A) (A) (A) (A) (A) (A) (A) (A) (A) (A) (A) (A)
                 (A) (A) (A) (A) (A) (A) (A) (A) (A) (A) (A) (A)
                 (A) (A) (A) (A) (A) (A) (A) (A) (A) (A) (A) (A)
                 (A) (A) (A) (A) (A) (A) (A) (A) (A) (A) (A) (A)
                 (A) (A) (A) (A) (A) (A) (A) (A) (A) (A) (A) (A)
                 (A) (A) (A) (A) (A) (A) (A) (A) (A) (A) (A) (A)
                 (A) (A) (A) (A) (A) (A) (A) (A) (A) (A) (A) (A)
                 (A) (A) (A) (A) (A) (A) (A) (A) (A) (A) (A) (A)
                 (A) (A) (A) (A) (A) (A) (A) (A) (A) (A) (A) (A)
                 (A) (A) (A) (A) (A) (A) (A) (A) (A) (A) (A) (A)
                 (A) (A) (A) (A) (A) (A) (A) (A) (A) (A) (A) (A)
                 (A) (A) (A) (A) (A) (A) (A) (A) (A) (A) (A) (A)
                 (A) (A) (A) (A) (A) (A) (A) (A) (A) (A) (A) (A)
                 (A) (A) (A) (A) (A) (A) (A) (A) (A) (A) (A) (A)
                 (A) (A) (A) (A) (A) (A) (A) (A) (A) (A) (A) (A)
                 (A) (A) (A) (A) (A) (A) (A) (A) (A) (A) (A) (A)
                 (A) (A) (A) (A) (A) (A) (A) (A) (A) (A) (A) (A)
                 (A) (A) (A) (A) (A) (A) (A) (A) (A) (A) (A) (A)
                 (A) (A) (A) (A) (A) (A) (A) (A) (A) (A) (A) (A)
                 (A) (A) (A) (A) (A) (A) (A) (A) (A) (A) (A) (A)
                 (A) (A) (A) (A) (A) (A) (A) (A) (A) (A) (A) (A)
                 (A) (A) (A) (A) (A) (A) (A) (A) (A) (A) (A) (A)
                 (A) (A) (A) (A) (A) (A) (A) (A) (A) (A) (A) (A)
                 (A) (A) (A) (A) (A) (A) (A) (A) (A) (A) (A) (A)
                 (A) (A) (A) (A) (A) (A) (A) (A) (A) (A) (A) (A)
                 (A) (A) (A) (A) (A) (A) (A) (A) (A) (A) (A) (A)
                 (A) (A) (A) (A) (A) (A) (A) (A) (A) (A) (A) (A)
                 (A) (A) (A) (A) (A) (A) (A) (A) (A) (A) (A) (A)
                 (A) (A) (A) (A) (A) (A) (A) (A) (A) (A) (A) (A)
                 (A) (A) (A) (A) (A) (A) (A) (A) (A) (A) (A) (A)
                 (A) (A) (A) (A) (A) (A) (A) (A) (A) (A) (A) (A)
                 (A) (A) (A) (A) (A) (A) (A) (A) (A) (A) (A) (A)
                 (A) (A) (A) (A) (A) (A) (A) (A) (A) (A) (A) (A)
                 (A) (A) (A) (A) (A) (A) (A) (A) (A) (A) (A) (A)
                 (A) (A) (A) (A) (A) (A) (A) (A) (A) (A) (A) (A)
                 (A) (A) (A) (A) (A) (A) (A) (A) (A) (A) (A) (A)
                 (A) (A) (A) (A) (A) (A) (A) (A) (A) (A) (A) (A)
                 (A) (A) (A) (A) (A) (A) (A) (A) (A) (A) (A) (A)
                 (A) (A) (A) (A) (A) (A) (A) (A) (A)
 The electronic state is 1-A.
 Alpha  occ. eigenvalues --  -89.89513 -78.13860 -19.65699 -19.59753 -14.72465
 Alpha  occ. eigenvalues --  -10.59107 -10.56582 -10.55538 -10.55532 -10.55456
 Alpha  occ. eigenvalues --  -10.54124 -10.52221 -10.51088 -10.51071 -10.51041
 Alpha  occ. eigenvalues --  -10.50996  -8.26166  -6.95234  -6.18282  -6.18051
 Alpha  occ. eigenvalues --   -6.17705  -5.07046  -5.06968  -5.06815  -1.18916
 Alpha  occ. eigenvalues --   -1.10179  -1.02393  -0.89638  -0.87541  -0.86889
 Alpha  occ. eigenvalues --   -0.83844  -0.82266  -0.77804  -0.76725  -0.75978
 Alpha  occ. eigenvalues --   -0.72194  -0.69350  -0.67670  -0.63673  -0.60109
 Alpha  occ. eigenvalues --   -0.56817  -0.55998  -0.55508  -0.55063  -0.53296
 Alpha  occ. eigenvalues --   -0.51835  -0.49994  -0.49531  -0.49157  -0.48741
 Alpha  occ. eigenvalues --   -0.48029  -0.47390  -0.46813  -0.46273  -0.45524
 Alpha  occ. eigenvalues --   -0.44581  -0.43832  -0.43497  -0.43281  -0.43101
 Alpha  occ. eigenvalues --   -0.42133  -0.41208  -0.40551  -0.40366  -0.39161
 Alpha  occ. eigenvalues --   -0.38809  -0.38536  -0.37244  -0.36822  -0.36524
 Alpha  occ. eigenvalues --   -0.34697  -0.30602  -0.26365
 Alpha virt. eigenvalues --    0.00050   0.00877   0.00960   0.01223   0.02190
 Alpha virt. eigenvalues --    0.02617   0.02650   0.03023   0.03156   0.04002
 Alpha virt. eigenvalues --    0.04400   0.04808   0.04911   0.05156   0.05441
 Alpha virt. eigenvalues --    0.05649   0.05932   0.06830   0.07092   0.07146
 Alpha virt. eigenvalues --    0.07797   0.07952   0.08514   0.08718   0.08834
 Alpha virt. eigenvalues --    0.09344   0.09776   0.09937   0.10122   0.10956
 Alpha virt. eigenvalues --    0.11045   0.11470   0.11971   0.12023   0.12274
 Alpha virt. eigenvalues --    0.12391   0.12806   0.13495   0.13649   0.13809
 Alpha virt. eigenvalues --    0.14142   0.14406   0.14693   0.14823   0.15087
 Alpha virt. eigenvalues --    0.15357   0.15592   0.15820   0.16231   0.16291
 Alpha virt. eigenvalues --    0.16582   0.16821   0.16923   0.17118   0.17334
 Alpha virt. eigenvalues --    0.17460   0.17727   0.17862   0.18077   0.18368
 Alpha virt. eigenvalues --    0.18599   0.18981   0.19399   0.19547   0.19695
 Alpha virt. eigenvalues --    0.19922   0.20215   0.20446   0.21110   0.21234
 Alpha virt. eigenvalues --    0.21460   0.21574   0.21922   0.22203   0.22772
 Alpha virt. eigenvalues --    0.22862   0.23034   0.23511   0.23693   0.23983
 Alpha virt. eigenvalues --    0.24326   0.24569   0.25066   0.25481   0.25729
 Alpha virt. eigenvalues --    0.26345   0.26420   0.26794   0.26973   0.27582
 Alpha virt. eigenvalues --    0.28074   0.28439   0.28714   0.29162   0.30167
 Alpha virt. eigenvalues --    0.30402   0.30804   0.31198   0.31558   0.31864
 Alpha virt. eigenvalues --    0.32263   0.32796   0.33273   0.33725   0.34028
 Alpha virt. eigenvalues --    0.34342   0.34837   0.35238   0.35594   0.35832
 Alpha virt. eigenvalues --    0.36215   0.36587   0.36772   0.37667   0.37807
 Alpha virt. eigenvalues --    0.38443   0.38506   0.39271   0.39313   0.39745
 Alpha virt. eigenvalues --    0.40121   0.40839   0.41038   0.41791   0.42177
 Alpha virt. eigenvalues --    0.42629   0.43084   0.44050   0.44106   0.45288
 Alpha virt. eigenvalues --    0.46381   0.46618   0.47215   0.47827   0.48716
 Alpha virt. eigenvalues --    0.49577   0.50178   0.51379   0.52129   0.52532
 Alpha virt. eigenvalues --    0.53686   0.54012   0.56004   0.57079   0.57544
 Alpha virt. eigenvalues --    0.58170   0.59133   0.60055   0.60318   0.60376
 Alpha virt. eigenvalues --    0.61712   0.63041   0.63695   0.63988   0.64808
 Alpha virt. eigenvalues --    0.64993   0.66202   0.66816   0.67917   0.68280
 Alpha virt. eigenvalues --    0.68787   0.69205   0.70187   0.70930   0.71394
 Alpha virt. eigenvalues --    0.71959   0.72766   0.73244   0.73663   0.74049
 Alpha virt. eigenvalues --    0.74611   0.75129   0.75713   0.76087   0.76752
 Alpha virt. eigenvalues --    0.77259   0.77286   0.77778   0.78179   0.79026
 Alpha virt. eigenvalues --    0.79977   0.80753   0.81360   0.81830   0.82268
 Alpha virt. eigenvalues --    0.82667   0.83188   0.83482   0.84324   0.84466
 Alpha virt. eigenvalues --    0.85033   0.85836   0.86289   0.87260   0.88043
 Alpha virt. eigenvalues --    0.88661   0.89689   0.90403   0.91425   0.92493
 Alpha virt. eigenvalues --    0.93240   0.94798   0.95660   0.96998   0.98121
 Alpha virt. eigenvalues --    0.99072   1.00022   1.00481   1.01526   1.02080
 Alpha virt. eigenvalues --    1.03584   1.05084   1.06360   1.06854   1.08139
 Alpha virt. eigenvalues --    1.08948   1.10208   1.12170   1.14005   1.15569
 Alpha virt. eigenvalues --    1.16462   1.18965   1.20249   1.20253   1.21835
 Alpha virt. eigenvalues --    1.23528   1.24531   1.25791   1.26187   1.27464
 Alpha virt. eigenvalues --    1.28479   1.30061   1.31421   1.33209   1.34112
 Alpha virt. eigenvalues --    1.35626   1.36416   1.36725   1.38232   1.41752
 Alpha virt. eigenvalues --    1.42565   1.46013   1.47301   1.48891   1.50139
 Alpha virt. eigenvalues --    1.51646   1.52686   1.54395   1.54813   1.55423
 Alpha virt. eigenvalues --    1.55846   1.56221   1.56762   1.57679   1.58616
 Alpha virt. eigenvalues --    1.60743   1.61939   1.62136   1.62824   1.62930
 Alpha virt. eigenvalues --    1.63663   1.64091   1.64877   1.65020   1.65367
 Alpha virt. eigenvalues --    1.65878   1.66688   1.67061   1.68009   1.68528
 Alpha virt. eigenvalues --    1.68809   1.68930   1.70434   1.71450   1.71740
 Alpha virt. eigenvalues --    1.72225   1.73614   1.74720   1.75033   1.75709
 Alpha virt. eigenvalues --    1.76066   1.76441   1.77465   1.77618   1.78244
 Alpha virt. eigenvalues --    1.78960   1.79942   1.80143   1.81657   1.81892
 Alpha virt. eigenvalues --    1.83271   1.84043   1.85060   1.85570   1.86430
 Alpha virt. eigenvalues --    1.87680   1.89022   1.89419   1.89791   1.90848
 Alpha virt. eigenvalues --    1.90870   1.92505   1.92979   1.93899   1.94073
 Alpha virt. eigenvalues --    1.95254   1.96526   1.99023   1.99370   2.01142
 Alpha virt. eigenvalues --    2.01948   2.04269   2.04775   2.06397   2.07168
 Alpha virt. eigenvalues --    2.09048   2.10478   2.10524   2.12537   2.13591
 Alpha virt. eigenvalues --    2.15742   2.17341   2.17873   2.18797   2.20467
 Alpha virt. eigenvalues --    2.22510   2.23135   2.23665   2.23815   2.24504
 Alpha virt. eigenvalues --    2.26270   2.27493   2.30277   2.31316   2.32586
 Alpha virt. eigenvalues --    2.34175   2.36334   2.37052   2.38116   2.40147
 Alpha virt. eigenvalues --    2.41865   2.42302   2.44458   2.47370   2.53083
 Alpha virt. eigenvalues --    2.54002   2.54337   2.54485   2.55780   2.56260
 Alpha virt. eigenvalues --    2.57222   2.57888   2.58086   2.58840   2.59008
 Alpha virt. eigenvalues --    2.59430   2.59771   2.60913   2.61333   2.61970
 Alpha virt. eigenvalues --    2.62322   2.63354   2.63537   2.65057   2.66150
 Alpha virt. eigenvalues --    2.67292   2.67493   2.68611   2.69158   2.70055
 Alpha virt. eigenvalues --    2.70379   2.71390   2.72531   2.73243   2.75069
 Alpha virt. eigenvalues --    2.75545   2.76553   2.77344   2.78809   2.79999
 Alpha virt. eigenvalues --    2.80491   2.83227   2.84173   2.85289   2.85597
 Alpha virt. eigenvalues --    2.86693   2.90232   2.90352   2.92477   2.93693
 Alpha virt. eigenvalues --    2.94742   2.95369   2.96588   2.97321   2.99259
 Alpha virt. eigenvalues --    2.99656   3.00874   3.01241   3.02225   3.04768
 Alpha virt. eigenvalues --    3.06194   3.07618   3.08415   3.09669   3.10126
 Alpha virt. eigenvalues --    3.15294   3.16093   3.17802   3.19180   3.24161
 Alpha virt. eigenvalues --    3.28305   3.31009   3.32798   3.36985   3.38868
 Alpha virt. eigenvalues --    3.44599   3.45724   3.48443   3.65048   3.68842
 Alpha virt. eigenvalues --    3.73612   3.77718   3.79712   3.79910   3.82626
 Alpha virt. eigenvalues --    3.84099   3.84976   3.85759   3.86730   3.87392
 Alpha virt. eigenvalues --    3.88016   3.89214   3.89863   3.91342   3.91732
 Alpha virt. eigenvalues --    3.92347   3.95040   4.08824   4.16376   4.17417
 Alpha virt. eigenvalues --    4.19682   4.29036   4.33789   4.34627   4.48019
 Alpha virt. eigenvalues --    4.98972   4.99218   5.19273   5.23796   5.27826
 Alpha virt. eigenvalues --    5.33577   5.40139   5.59321   7.42422   8.16902
 Alpha virt. eigenvalues --   14.17040  14.20127  14.28765  17.59909  17.69672
 Alpha virt. eigenvalues --   17.71432  23.91288  23.95511  23.97567  23.98299
 Alpha virt. eigenvalues --   24.02943  24.04898  24.08134  24.09179  24.10186
 Alpha virt. eigenvalues --   24.10864  24.13313  35.69766  50.04460  50.07054
 Alpha virt. eigenvalues --  163.71816 189.49907
          Condensed to atoms (all electrons):
               1          2          3          4          5          6
     1  P   17.022339   0.522227  -0.384448  -0.447029  -0.244470  -0.134388
     2  S    0.522227  16.395611   0.014613   0.260002  -0.258523  -0.210612
     3  O   -0.384448   0.014613   8.455559   0.028974  -0.023077   0.000033
     4  C   -0.447029   0.260002   0.028974   8.439084  -0.308554  -0.136450
     5  C   -0.244470  -0.258523  -0.023077  -0.308554   8.837623   0.161275
     6  O   -0.134388  -0.210612   0.000033  -0.136450   0.161275   8.578080
     7  C   -0.331312  -0.269491  -0.112932   0.163417  -0.168481  -0.115115
     8  H   -0.152514   0.005148   0.031044   0.020011  -0.004593  -0.001041
     9  H   -0.168510  -0.040619   0.005670   0.009367  -0.035085   0.023658
    10  H   -0.005865   0.009651  -0.007352  -0.005806   0.007226  -0.031702
    11  H   -0.010584  -0.029571  -0.099121  -0.017014   0.773611  -0.003086
    12  H   -0.462022   0.175971   0.148752   0.594563  -3.224410   0.086743
    13  C    0.040503  -0.049902  -0.054465  -0.082132  -0.181838  -0.085978
    14  H    0.029480   0.006744   0.023677   0.004804  -0.179910  -0.012572
    15  H   -0.038288  -0.019868  -0.037013  -0.000095   0.168934   0.022225
    16  H    0.027053  -0.001557  -0.005130  -0.006200  -0.069648   0.000668
    17  C    0.077285  -0.963062  -0.052516  -3.142444   0.824835   0.216166
    18  H   -0.153540  -0.090634   0.028010   0.357409  -0.078188   0.047624
    19  H   -0.004517  -0.056885  -0.006067   0.295455   0.034471   0.009465
    20  H    0.010643   0.015017  -0.000125   0.129211  -0.008528  -0.006589
    21  N   -0.034857   0.153943  -0.020122   0.083429   0.253151   0.011750
    22  H   -0.044172  -0.038111   0.006484   0.058558  -0.046254  -0.006408
    23  C    0.016243   0.088247   0.026646   0.058053  -0.608661   0.002705
    24  C    0.121830   0.039308   0.061653   0.178428  -0.501070  -0.039366
    25  C    0.059463   0.054382  -0.050059   0.161073   0.196027  -0.026914
    26  C   -0.058547   0.029679   0.003557   0.085647  -0.001964   0.004465
    27  H   -0.016369  -0.075232   0.001216  -0.055432   0.007117   0.016076
    28  H   -0.003717   0.003974   0.006427  -0.005968  -0.097782   0.000579
    29  C   -0.059012  -0.025021  -0.018082   0.023903   0.358135  -0.003988
    30  C    0.049614  -0.016451  -0.006986  -0.177153   0.134742  -0.002345
    31  H   -0.124756   0.096437   0.014241  -0.068133   0.167997  -0.014238
    32  H    0.006220  -0.009420  -0.003584   0.000687   0.011575   0.004541
    33  H    0.017965   0.000741  -0.000801  -0.001262  -0.003541  -0.004603
    34  H    0.004667   0.003952  -0.000332  -0.013733   0.006515   0.001062
    35  H   -0.002189   0.002501   0.000036   0.005340  -0.000409  -0.000486
    36  H    0.001741  -0.001269   0.000159   0.002953  -0.007842  -0.000704
    37  H    0.001855  -0.000268   0.000384   0.012482  -0.009718  -0.001027
    38  H   -0.034671  -0.023016  -0.028321  -0.054774   0.418585   0.011458
    39  H    0.006337   0.029732   0.006185   0.053341  -0.108825  -0.002752
    40  H   -0.000319  -0.001110  -0.000240  -0.010746   0.003526   0.000120
    41  H    0.002166  -0.000863  -0.000051  -0.056878   0.006475   0.001162
    42  H    0.000875   0.001304  -0.000005   0.014384  -0.000509  -0.000774
               7          8          9         10         11         12
     1  P   -0.331312  -0.152514  -0.168510  -0.005865  -0.010584  -0.462022
     2  S   -0.269491   0.005148  -0.040619   0.009651  -0.029571   0.175971
     3  O   -0.112932   0.031044   0.005670  -0.007352  -0.099121   0.148752
     4  C    0.163417   0.020011   0.009367  -0.005806  -0.017014   0.594563
     5  C   -0.168481  -0.004593  -0.035085   0.007226   0.773611  -3.224410
     6  O   -0.115115  -0.001041   0.023658  -0.031702  -0.003086   0.086743
     7  C    6.415228   0.430581   0.471780   0.399597  -0.005436   0.168484
     8  H    0.430581   0.510066  -0.025350  -0.026845  -0.000575  -0.001821
     9  H    0.471780  -0.025350   0.498354  -0.037287  -0.004934   0.032498
    10  H    0.399597  -0.026845  -0.037287   0.500941   0.002079  -0.025376
    11  H   -0.005436  -0.000575  -0.004934   0.002079   0.545283  -0.482789
    12  H    0.168484  -0.001821   0.032498  -0.025376  -0.482789   6.762148
    13  C   -0.024166   0.000276   0.005474   0.002994  -0.008750  -0.921839
    14  H    0.004952   0.000092   0.000096   0.000644  -0.018757   0.145110
    15  H    0.003077  -0.000430  -0.000327  -0.001647   0.017409  -0.146380
    16  H   -0.004066   0.000215   0.000083   0.000450  -0.007097  -0.053067
    17  C   -0.054128  -0.017706   0.003993  -0.001130   0.065830  -1.450327
    18  H   -0.008751  -0.003084   0.003996   0.000989  -0.008261   0.054859
    19  H    0.001838  -0.002199   0.000254   0.000457   0.002527  -0.035681
    20  H    0.002931   0.000042  -0.000178   0.000135  -0.000256   0.011008
    21  N   -0.006291  -0.001127  -0.001849   0.000130   0.014829  -0.405464
    22  H    0.011488   0.000747   0.000866  -0.000170  -0.003047   0.057152
    23  C    0.005728   0.000627   0.001790  -0.000107  -0.096807   1.431672
    24  C    0.001583   0.003567   0.004767   0.000318  -0.018083   0.337942
    25  C    0.028008  -0.000468  -0.001256   0.000831   0.006407  -0.053328
    26  C   -0.001066   0.000576   0.000550  -0.000292  -0.002377  -0.090361
[...]
 00000424,-0.00000223,0.,0.00000114,-0.00000108,-0.00000101,0.00000266,
 0.00000186,0.00000084,-0.00012461,-0.00000282,0.00007044,0.00125615,0.
 00028990,-0.00082670,-0.00006897,0.00001406,-0.00002693,-0.00004940,-0
 .00001384,0.00001907,0.00000059,0.00001270,0.00001045,-0.00002479,0.00
 001380,0.00002099,0.00005886,-0.00005097,-0.00000648,0.00000292,-0.000
 00038,-0.00000486,0.00001136,0.00000332,0.00000046,0.00001544,-0.00008
 708,0.00002055,-0.00046227,-0.00099558,0.00244689,-0.00003161,-0.00003
 287,0.00003754,-0.02165079,0.02048347,0.00341483,0.00005321,-0.0002122
 7,0.00004060,0.00006756,-0.00000431,0.00006215,-0.00000995,0.00000350,
 0.00006216,0.00000425,-0.00001471,0.00000941,0.00045651,-0.00018843,0.
 00150587,0.02789963,-0.02544119,-0.04995685,-0.00175087,0.00148690,-0.
 00511630,0.00004459,-0.00000410,0.00002099,-0.00001060,-0.00002661,0.0
 0004388,0.00000038,-0.00002659,0.00000353,0.00000379,-0.00003033,0.000
 01377,0.00002554,0.00000228,-0.00000950,0.00001286,0.00002533,0.000025
 75,0.01265756,-0.01403661,-0.00269625,-0.02744032,0.02595395,0.0531044
 8,0.00003641,-0.00011606,-0.00001849,-0.00003292,-0.00013187,-0.000011
 85,0.00001136,0.00004670,-0.00002506,-0.00000924,0.00020604,0.00005892
 ,-0.00001051,-0.00007320,-0.00008225,0.00001337,0.00002078,0.00001163,
 -0.00001121,0.00002409,0.00000541,0.00000324,0.00000182,-0.00000135,0.
 00000048,-0.00000266,0.00000092,-0.00000826,-0.00000097,-0.00000061,0.
 00002220,0.00001981,-0.00005367,0.00018510,-0.00005763,-0.00005835,0.0
 0003484,0.00000659,0.00000921,0.00001065,-0.00000736,-0.00000685,-0.00
 000446,-0.00000377,-0.00000407,0.00000160,-0.00000784,-0.00000469,0.00
 033006,-0.00033295,-0.00016903,-0.00003183,-0.00001509,0.00000651,0.00
 003000,0.00001976,-0.00001961,-0.00002639,0.00006334,0.00007100,0.0000
 2842,0.00062558,0.00103333,-0.00005233,0.00020490,0.00019632,-0.006444
 70,-0.01208292,-0.00529593,0.00004703,-0.00002658,0.00011135,-0.000044
 76,-0.00006097,-0.00007528,-0.00004681,-0.00004476,0.00004976,0.000012
 28,0.00000430,-0.00004711,-0.00036156,0.00099813,-0.00220475,-0.085368
 18,-0.08365160,-0.04351620,0.00056537,-0.00100297,-0.00000734,0.000013
 38,-0.00000495,0.00000236,0.00004442,0.00007084,-0.00004958,0.00003235
 ,0.00001537,-0.00002521,0.00000418,0.00001746,-0.00001028,0.00001666,0
 .00001504,-0.00001109,0.00003624,0.00003674,-0.00001276,-0.00812968,-0
 .01699787,-0.01014550,0.01008559,0.01898509,0.01000281,0.08898318,0.00
 006873,-0.00010484,-0.00006694,-0.00026290,-0.00033291,0.00003356,0.00
 001236,0.00004331,-0.00001744,0.00001819,0.00016651,-0.00010789,-0.000
 03043,0.00001935,-0.00001121,0.00001581,0.00002604,0.00004566,-0.00001
 387,0.00001226,0.00000380,0.00000007,0.00000411,0.00000136,0.00000098,
 0.00000259,-0.00000106,-0.00000981,-0.00000441,0.00000034,0.00000775,-
 0.00001793,-0.00000876,-0.00000300,-0.00004434,-0.00001039,-0.00000994
 ,-0.00000216,0.00000134,-0.00000545,0.00000669,0.00000290,0.00000106,0
 .00000348,0.00000440,0.00000008,0.00000010,0.00000255,0.00042966,-0.00
 036735,0.00042943,-0.00000982,0.00000658,0.00000169,0.00001562,0.00000
 491,-0.00001012,-0.00006044,0.00013239,0.00017316,-0.00012204,0.000296
 68,-0.00067277,0.00004185,-0.00057207,0.00078740,0.00361275,0.00596070
 ,0.00281360,0.00008221,0.00020941,0.00002858,0.00000680,0.00003112,-0.
 00001749,-0.00001802,-0.00000279,0.00006642,0.00000487,-0.00000702,-0.
 00007760,0.00059541,0.00080432,0.00140689,-0.08409609,-0.22373014,-0.0
 9236146,-0.00037295,0.00116203,-0.00004121,0.00000120,-0.00000517,0.00
 000389,-0.00000978,-0.00000003,0.00002910,0.00000687,-0.00001640,-0.00
 000775,0.00000223,-0.00000583,-0.00001342,-0.00002233,-0.00001597,0.00
 000447,-0.00002924,-0.00001792,0.00001229,-0.00324384,-0.00924363,-0.0
 0443631,-0.00872256,-0.01622432,-0.00763085,0.09266882,0.24178873,0.00
 005176,-0.00007955,-0.00004327,-0.00029265,-0.00015659,0.00006239,-0.0
 0000270,0.00003381,-0.00000792,0.00009041,0.00016656,0.00018236,-0.000
 00382,-0.00001395,-0.00001240,-0.00000592,0.00002965,0.00002918,-0.000
 01655,0.00001470,0.00000809,0.00000008,0.00000016,-0.00000033,0.000002
 45,0.00000264,0.00000045,-0.00000794,-0.00000456,0.00000043,0.00000561
 ,-0.00000240,-0.00001541,0.00002693,-0.00004057,0.00000389,0.00000439,
 0.00000022,-0.00000096,-0.00000247,0.00000211,0.00000268,0.00000077,0.
 00000070,0.00000113,0.00000123,-0.00000042,0.00000104,0.00014858,0.000
 05930,-0.00056563,-0.00006623,-0.00002441,0.00001888,0.00000705,0.0000
 0744,-0.00001108,-0.00001831,0.00003540,0.00009603,-0.00006563,-0.0003
 6818,0.00246731,0.00002735,0.00087998,-0.00016692,-0.01215515,-0.02542
 480,-0.01464038,0.00006441,-0.00026745,0.00014522,-0.00000315,-0.00003
 439,0.00000102,-0.00003871,-0.00003941,0.00007080,0.00002038,0.0000294
 3,-0.00001817,-0.00269275,0.00219916,-0.00469860,-0.04264456,-0.091344
 00,-0.09202452,0.00160620,-0.00056724,0.00067908,0.00002843,-0.0000051
 0,-0.00001571,0.00001429,0.00011839,0.00001110,0.00003934,0.00003117,-
 0.00002517,-0.00000306,0.00002781,-0.00001578,0.00006431,0.00004955,-0
 .00000861,0.00010582,0.00007843,0.00000443,0.00681089,0.01682855,0.009
 09538,-0.00144804,-0.00271424,-0.00249382,0.05024322,0.09980836,0.1012
 1328,0.00017345,-0.00010076,-0.00009889,-0.00005861,-0.00005176,0.0000
 3274,-0.00004887,0.00005210,-0.00000544,0.00019101,-0.00017889,0.00004
 220,0.00001588,0.00000071,0.00000030,-0.00007530,0.00004685,0.00006631
 ,-0.00002413,0.00002394,0.00001391,-0.00000061,0.00000160,-0.00000078,
 0.00000117,-0.00000058,0.00000152,-0.00001173,-0.00000567,0.00000217,-
 0.00001054,0.00000968,-0.00001005,0.00000008,-0.00004313,0.00000463,-0
 .00001636,0.00000126,-0.00001113,0.00000142,0.00000374,0.00000134,0.00
 000135,0.00000038,0.00000050,-0.00000289,0.00000962,0.00000365,0.00013
 207,0.00206061,-0.00013990,-0.00002122,0.00001608,-0.00001148,-0.00009
 322,-0.00007408,0.00001237,0.00045371,-0.00013538,0.00008314,-0.005841
 03,0.00202072,0.00211719,0.00002842,0.00006838,0.00012655,-0.01540082,
 -0.01709193,0.01135304,-0.00063934,-0.00048899,-0.00136124,0.00005331,
 -0.00002522,0.00023723,0.00015448,0.00022637,0.00002900,0.00001346,0.0
 0003297,0.00031166,0.00134863,-0.00013335,0.00014331,0.00068125,-0.000
 61987,0.00023090,-0.16615382,-0.10515885,0.08198077,0.00001319,-0.0000
 1153,0.00000583,-0.00000536,0.00001151,-0.00001857,-0.00000825,0.00011
 139,0.00005820,0.00006255,-0.00007806,-0.00004690,0.00008432,-0.000060
 35,0.00006199,-0.00000907,-0.00004522,0.00006322,-0.00000341,0.0002911
 1,-0.00052899,0.00032749,0.00021050,-0.00003294,-0.00004551,0.00007793
 ,0.00006365,0.17923537,-0.00002867,-0.00003838,-0.00001912,-0.00005014
 ,0.00004222,-0.00000764,0.00000283,0.00000766,-0.00000184,-0.00003204,
 0.00035548,0.00019843,-0.00000921,-0.00000966,0.00001160,0.00002172,0.
 00000607,-0.00000320,-0.00000260,0.00000615,0.00000552,0.00000045,-0.0
 0000028,0.00000017,0.00000090,0.00000053,0.00000019,-0.00000200,-0.000
 00086,0.00000070,0.00000691,-0.00000317,0.00000163,-0.00001372,0.00002
 321,-0.00001007,0.00000533,0.00000010,0.00000295,0.00000040,-0.0000000
 8,-0.00000013,-0.00000053,0.00000010,0.00000002,0.00000004,-0.00000199
 ,-0.00000119,-0.00040369,-0.00108094,-0.00014271,-0.00009174,-0.000052
 64,0.00002100,0.00005384,0.00003925,-0.00002534,-0.00023785,0.00011961
 ,-0.00017888,0.00460564,-0.00092098,-0.00161053,0.00005390,0.00008890,
 0.00039882,0.01201242,0.00949560,-0.00847087,0.00029246,0.00021916,0.0
 0074484,-0.00002211,0.00003485,-0.00007173,-0.00007518,-0.00002576,0.0
 0001776,-0.00003194,0.00000991,-0.00013149,-0.00057194,0.00117432,-0.0
 0016885,-0.00030805,0.00017864,0.00019689,-0.10722927,-0.13781464,0.07
 394172,-0.00001200,0.00000794,-0.00000321,-0.00001325,-0.00002024,0.00
 001644,-0.00000969,-0.00004618,-0.00001649,-0.00001749,0.00008331,0.00
 000411,-0.00007846,0.00002223,-0.00001793,-0.00009447,-0.00009206,0.00
 008722,0.00035558,0.00002960,-0.00000712,-0.00014604,0.00008942,-0.000
 23162,0.00006516,0.00001228,0.00001185,0.11356762,0.14798071,-0.000060
 20,0.00003035,0.00004489,0.00006345,0.00004369,-0.00001241,0.00002511,
 -0.00001387,-0.00000321,-0.00005619,0.00015613,0.00015618,-0.00001211,
 -0.00000205,-0.00000165,0.00002368,-0.00001212,-0.00002368,0.00000835,
 -0.00000941,-0.00000574,0.00000043,-0.00000038,0.00000053,-0.00000082,
 0.00000027,-0.00000050,0.00000471,0.00000246,-0.00000088,0.00000516,-0
 .00000289,0.00000388,0.00000780,0.00001351,0.00000128,0.00000828,-0.00
 000142,0.00000630,-0.00000128,-0.00000167,-0.00000053,-0.00000052,0.00
 000005,-0.00000032,0.00000129,-0.00000507,-0.00000172,-0.00056129,-0.0
 0094754,-0.00032352,-0.00004946,-0.00003510,0.00001542,0.00004980,0.00
 002604,-0.00001366,-0.00009998,-0.00003176,-0.00004475,0.00239027,-0.0
 0091112,0.00034589,-0.00004945,0.00006353,0.00026923,0.00296277,0.0034
 5287,-0.00452661,-0.00007788,0.00021325,0.00060221,-0.00000161,0.00004
 880,-0.00005351,-0.00012535,0.00006134,-0.00033914,0.00001722,0.000020
 07,-0.00008274,-0.00013300,0.00014765,0.00010356,-0.00045503,0.0000890
 4,-0.00030571,0.08313467,0.07355345,-0.10320919,0.00000483,-0.00000637
 ,-0.00000216,-0.00000942,-0.00001129,0.00000951,-0.00000371,-0.0000381
 2,-0.00002618,0.00000204,-0.00023568,-0.00003978,0.00013856,-0.0000896
 9,-0.00006418,-0.00003246,0.00013188,-0.00004141,-0.00056755,0.0001064
 7,0.00016106,-0.00003526,-0.00020716,0.00009607,-0.00012524,0.00003229
 ,0.00006093,-0.09184782,-0.07989325,0.10843852,-0.00000275,-0.00000060
 ,0.,0.00002070,0.00000539,0.00002523,0.00000782,0.00000457,-0.00000127
 ,-0.00009810,0.00010148,0.00008798,0.00000278,0.00000756,-0.00000539,-
 0.00000636,0.00000077,-0.00000399,0.00000011,0.00000063,-0.00000073,-0
 .00000038,0.00000016,0.00000028,-0.00000116,-0.00000123,0.00000098,0.0
 0000037,0.00000055,0.00000032,-0.00000272,0.00000057,0.00000147,0.0000
 1455,-0.00000248,0.00000859,-0.00000037,0.00000187,-0.00000062,0.00000
 086,-0.00000127,0.00000087,0.00000073,-0.00000054,-0.00000071,-0.00000
 090,-0.00000063,-0.00000043,-0.00101904,-0.00041149,0.00091538,-0.0000
 1713,0.00000007,0.00000710,-0.00000212,0.00001356,-0.00001389,-0.00020
 104,-0.00030657,-0.00025484,0.00103542,-0.00047011,-0.00071385,-0.0024
 1114,-0.00112070,0.00095523,0.00574202,0.02330517,0.01579388,0.0000182
 0,0.00000061,-0.00005953,0.00005154,0.00011387,-0.00000489,-0.00000346
 ,-0.00002860,-0.00014459,-0.00000341,-0.00002089,0.00003111,-0.0041810
 6,0.00296326,0.00075728,0.00157452,-0.00044849,0.00100757,-0.05463206,
 -0.03979406,-0.03148227,-0.00002524,-0.00000374,0.00001369,-0.00007238
 ,-0.00010794,0.00006678,-0.00004394,-0.00005354,0.00001888,0.00000982,
 -0.00006442,0.00001356,0.00003384,-0.00000994,-0.00003316,0.00002520,0
 .00005428,-0.00001273,0.00004305,-0.00007031,-0.00011608,0.00015152,-0
 .00021855,0.00014061,-0.00004102,-0.00047801,-0.00014986,-0.00432151,-
 0.01553258,-0.01347443,0.06152589,0.00000075,-0.00004242,-0.00001234,0
 .00002150,0.00002362,0.00000339,0.00000466,0.00001656,-0.00000363,-0.0
 0005572,0.00040169,0.00047776,-0.00001220,-0.00001104,0.00000193,0.000
 00684,0.00001713,0.00000553,-0.00000354,0.00000570,0.00000346,0.000001
 46,0.00000019,-0.00000016,0.00000096,0.00000036,-0.00000019,-0.0000023
 5,-0.00000058,0.,0.00000336,-0.00000164,0.00000088,-0.00000476,0.00000
 493,-0.00000108,0.00000362,0.00000019,0.00000232,-0.00000068,0.0000005
 8,-0.00000166,-0.00000081,-0.00000019,0.00000044,0.00000176,-0.0000018
 6,-0.00000029,-0.00135807,-0.00029285,-0.00049370,-0.00015332,-0.00008
 232,0.00002748,0.00006140,0.00002181,-0.00002960,0.00007522,0.00004605
 ,-0.00017795,0.00014984,0.00013043,0.00035355,-0.00128831,-0.00013448,
 0.00098708,-0.00367670,-0.01545976,-0.00923579,0.00012711,0.00004557,0
 .00031426,-0.00005758,-0.00007116,-0.00009159,-0.00001865,0.00003799,0
 .00016898,0.00000715,0.00001512,-0.00010173,0.00374687,-0.00070309,-0.
 00046009,-0.00067355,0.00082545,-0.00049534,-0.03868060,-0.20953760,-0
 .12389572,0.00001870,0.00000387,-0.00000831,0.00005162,0.00011242,-0.0
 0003459,0.00005293,0.00001041,-0.00004546,-0.00000527,0.00003794,-0.00
 002667,-0.00005289,-0.00000001,0.00003683,-0.00004583,-0.00002974,0.00
 006597,0.00000458,-0.00007894,0.00015623,-0.00003149,0.00025303,0.0000
 6864,0.00027794,-0.00004953,0.00041181,-0.00291767,-0.01388434,-0.0108
 4726,0.04244852,0.22864164,0.00003186,-0.00008132,-0.00005044,-0.00003
 838,0.00002924,0.00000838,-0.00000127,0.00003114,-0.00000693,0.0000033
 7,0.00023553,0.00025557,-0.00001429,-0.00000837,0.00000297,-0.00000352
 ,0.00002558,0.00002323,-0.00000806,0.00001716,0.00001154,0.00000044,-0
 .00000031,-0.00000063,0.00000136,0.00000116,0.00000105,-0.00000596,-0.
 00000397,0.00000139,0.00000133,0.00000080,-0.00000051,-0.00000343,0.00
 000056,-0.00000259,0.00000469,0.00000113,-0.00000145,-0.00000002,0.000
 00106,0.00000113,0.00000022,-0.00000056,0.00000022,0.00000050,-0.00000
 054,-0.00000004,-0.00031968,-0.00030150,-0.00053211,-0.00010651,-0.000
 04888,0.00002459,0.00001383,-0.00000061,-0.00002096,-0.00001372,0.0000
 8321,-0.00023605,0.00014015,-0.00029321,0.00013650,0.00065088,0.000182
 65,0.00035672,-0.00167120,-0.00375425,-0.00376933,-0.00016150,0.000106
 09,0.00007665,0.00002196,-0.00002097,0.00000607,-0.00008463,-0.0002034
 4,-0.00036692,0.00003253,0.00000343,-0.00003194,0.00081091,-0.00017913
 ,0.00057831,-0.00020952,0.00121616,0.00063826,-0.03012372,-0.12401731,
 -0.14164422,0.00001222,-0.00001593,-0.00000894,0.00002315,0.00003818,-
 0.00000815,0.00002882,0.00001337,0.00000118,-0.00000046,-0.00017690,0.
 00001698,0.00018226,-0.00000846,-0.00010754,0.00021209,0.00021133,-0.0
 0003536,0.00024783,-0.00007625,0.00002823,0.00013969,0.00013634,-0.000
 01790,0.00009065,-0.00015009,0.00059372,0.00223719,0.01225736,0.009652
 61,0.03244047,0.13649058,0.14884881,-0.00002093,0.00002637,-0.00000833
 ,0.00002852,0.00000569,0.00002018,-0.00002303,-0.00002024,0.00001625,0
 .00002053,-0.00007289,0.00004336,0.00001854,-0.00000725,0.00002176,0.0
 0001394,-0.00000615,-0.00000022,0.00000432,-0.00000659,0.00000026,-0.0
 0000138,-0.00000027,0.00000068,-0.00000020,0.00000045,0.00000008,0.000
 00146,0.00000081,-0.00000035,0.00000952,-0.00000770,0.00000537,-0.0000
 0442,0.00001687,-0.00002870,0.00000006,0.00000073,-0.00000156,0.000001
 50,-0.00000139,-0.00000093,-0.00000068,0.00000103,0.00000186,-0.000000
 60,0.00000108,0.00000043,-0.00019471,-0.00061057,-0.00002758,-0.000006
 21,-0.00000386,0.00000216,-0.00000406,0.00000407,-0.00000015,-0.000243
 49,-0.00032221,0.00015061,0.00244693,-0.00071276,-0.00033730,0.0000001
 2,0.00011485,0.00001940,-0.00956106,0.00683410,-0.02476313,-0.00046769
 ,0.00006988,0.00018976,0.00008042,0.00005902,0.00002514,-0.00030262,0.
 00012698,0.00036284,0.00009581,0.00000912,0.00003518,0.00078810,-0.000
 30242,0.00034601,-0.00428505,0.00392017,0.00228419,-0.09046171,0.03644
 710,-0.09383864,0.00001643,-0.00004036,-0.00000548,-0.00001804,-0.0000
 3436,0.00000801,-0.00000536,-0.00001069,0.00000539,-0.00003540,-0.0003
 9654,0.00043169,0.00030874,-0.00009615,-0.00016152,0.00037140,0.000333
 15,-0.00001926,0.00042659,-0.00003362,0.00000149,-0.00088745,0.0005507
 1,-0.00159948,0.00012095,-0.00015074,0.00018992,0.00981898,-0.00603056
 ,0.01893161,-0.00317164,0.00197319,-0.00456255,0.09512291,-0.00000431,
 -0.00000848,0.00001543,-0.00000770,-0.00000750,-0.00001578,0.00002165,
 0.00000658,-0.00000844,0.00001814,0.00000562,-0.00002907,-0.00001398,0
 .00000638,-0.00001338,0.00000029,0.00000039,-0.00000607,0.00000171,0.0
 0000075,-0.00000201,0.00000042,0.00000014,0.00000031,-0.00000008,-0.00
 000018,0.00000022,0.00000033,0.00000024,0.,-0.00000509,0.00000425,-0.0
 0000268,0.00000452,-0.00000777,0.00001767,0.00000429,-0.00000073,0.000
 00189,-0.00000150,-0.00000011,0.00000084,-0.00000044,0.00000026,-0.000
 00102,0.00000071,-0.00000248,-0.00000069,0.00006970,0.00019004,-0.0001
 4713,0.00000863,0.00000400,-0.00000956,0.00001144,0.00000387,0.0000019
 2,-0.00002422,0.00008599,0.00017447,-0.00116023,0.00062718,-0.00018687
 ,0.00003621,0.00003614,-0.00006904,0.00380358,-0.00557793,0.01557295,0
 .00036991,0.00004447,-0.00002229,-0.00002468,-0.00000987,-0.00000576,0
 .00007496,0.00008221,0.00003280,-0.00005104,-0.00002301,-0.00009035,-0
 .00067823,0.00024778,0.00004735,0.00286046,-0.00159418,-0.00122724,0.0
 3691684,-0.07588022,0.07612881,-0.00001161,0.00001604,0.00000017,0.000
 00122,0.00001184,0.00000287,-0.00000155,-0.00000514,-0.00000828,-0.000
 16252,0.00026919,0.00039556,-0.00020267,0.00009550,0.00010125,0.000223
 22,-0.00056373,-0.00077882,0.00001417,0.00008218,-0.00034705,0.0008077
 4,0.00010110,0.00087511,0.00022773,0.00007116,0.00026007,0.00837624,-0
 .00603507,0.01511007,-0.00987620,0.00972888,-0.02174007,-0.04162805,0.
 07799425,0.00001338,0.00002039,0.00000855,0.00005290,-0.00001601,0.000
 00639,-0.00001053,-0.00000598,0.00000537,0.00002400,-0.00009728,0.0000
 8638,0.00001203,-0.00000254,0.00000284,-0.00001121,-0.00000039,0.00000
 029,0.00000106,-0.00000311,-0.00000237,-0.00000026,-0.00000002,0.00000
 011,-0.00000097,-0.00000045,-0.00000021,0.00000087,0.00000044,-0.00000
 070,0.00000047,0.00000058,-0.00000284,-0.00000847,-0.00000624,-0.00000
 344,-0.00000424,-0.00000033,-0.00000270,0.00000058,-0.00000046,0.00000
 047,0.00000020,0.00000046,0.,-0.00000074,0.00000204,0.00000034,0.00000
 961,0.00033130,-0.00026397,-0.00000541,-0.00000084,-0.00000220,-0.0000
 1361,-0.00001140,0.00000498,0.00024022,-0.00007660,0.00003545,-0.00094
 465,0.00042709,0.00078493,-0.00004671,0.00004711,0.00006395,0.00327659
 ,-0.00241201,0.00617429,-0.00007019,-0.00004786,0.00007861,-0.00006239
 ,-0.00001728,-0.00003036,0.00059303,-0.00074335,-0.00256908,-0.0000249
 6,0.00003183,0.00005649,-0.00061662,0.00036388,0.00011936,0.00082508,-
 0.00022325,0.00071125,-0.09630236,0.07787218,-0.24781253,-0.00001421,0
 .00003120,0.00001162,0.00000642,-0.00000429,-0.00000115,-0.00000045,0.
 00001327,0.00001272,0.00057944,-0.00026253,-0.00155784,0.00047085,-0.0
 0012861,-0.00025143,0.00058557,-0.00016370,-0.00103576,-0.00004770,-0.
 00014938,0.00014718,0.00012757,-0.00016896,0.00023862,0.00008871,-0.00
 005071,0.00001585,-0.00517042,0.00309398,-0.01084489,-0.00581402,0.006
 38602,-0.01442211,0.10226155,-0.08402817,0.27023754\\-0.00000218,-0.00
 000071,0.00000770,-0.00000310,-0.00000409,0.00001571,-0.00000231,-0.00
 000475,0.00000923,0.00000185,-0.00000037,0.00001470,-0.00000627,-0.000
 00936,0.00000119,0.00000651,0.00001046,0.00001357,0.00000064,0.0000014
 3,0.00002135,0.00000598,0.00000303,0.00002668,-0.00000110,-0.00000433,
 0.00002627,0.00000505,0.00000146,0.00002255,-0.00000854,-0.00001147,-0
 .00000068,-0.00000186,-0.00000324,-0.00000093,-0.00000200,-0.00000295,
 -0.00000693,-0.00000398,-0.00000446,-0.00001328,0.00000100,0.00000260,
 -0.00000681,-0.00000375,-0.00000481,-0.00000641,-0.00000035,0.00000008
 ,0.00000609,0.00000530,0.00000594,0.00001292,0.00000223,0.00000123,0.0
 0002067,0.00000249,0.00000287,0.00000605,-0.00000123,-0.00000229,-0.00
 000016,-0.00000394,-0.00000605,0.00000604,-0.00000337,-0.00000279,-0.0
 0000831,0.00000507,0.00000847,-0.00000527,0.00000403,0.00000802,-0.000
 00929,0.00000807,0.00001129,-0.00000868,0.00000800,0.00001041,0.000001
 73,-0.00000154,-0.00000064,-0.00001414,-0.00000752,-0.00001108,-0.0000
 0961,-0.00000276,-0.00000435,-0.00000972,0.00000363,0.00000543,-0.0000
 0734,0.00000397,0.00000704,-0.00001589,0.00000884,0.00001454,-0.000011
 74,0.00000721,0.00001057,-0.00000463,0.00001143,0.00001714,-0.00000923
 ,0.00000544,0.00000958,-0.00001393,-0.00001129,-0.00001446,-0.00001240
 ,-0.00000780,-0.00001088,-0.00000897,-0.00000965,-0.00001403,-0.000002
 16,-0.00000620,-0.00000716,-0.00001455,-0.00000545,-0.00000780,-0.0000
 0365,-0.00000053,0.00000045,-0.00000774\\\@


 There ain't no surer way to find out whether you
 like people or hate them than to travel with them.
                                     -- Mark Twain
 Job cpu time:       1 days  3 hours 10 minutes 53.9 seconds.
 File lengths (MBytes):  RWF=   1270 Int=      0 D2E=      0 Chk=     37 Scr=      1
 Normal termination of Gaussian 09 at Thu Jul 18 18:53:41 2019.
