 Entering Gaussian System, Link 0=g09
 Input=/work/smf115/VX_Hydrolysis/VXh_1a.com
 Output=/work/smf115/VX_Hydrolysis/VXh_1a.log
 Initial command:
 /apps/gaussian/g09_d01/g09/l1.exe "/tmp/pbs.4812766.cx1b/Gau-13160.inp" -scrdir="/tmp/pbs.4812766.cx1b/"
 Entering Link 1 = /apps/gaussian/g09_d01/g09/l1.exe PID=     13161.
  
 Copyright (c) 1988,1990,1992,1993,1995,1998,2003,2009,2013,
            Gaussian, Inc.  All Rights Reserved.
  
 This is part of the Gaussian(R) 09 program.  It is based on
 the Gaussian(R) 03 system (copyright 2003, Gaussian, Inc.),
 the Gaussian(R) 98 system (copyright 1998, Gaussian, Inc.),
 the Gaussian(R) 94 system (copyright 1995, Gaussian, Inc.),
 the Gaussian 92(TM) system (copyright 1992, Gaussian, Inc.),
 the Gaussian 90(TM) system (copyright 1990, Gaussian, Inc.),
 the Gaussian 88(TM) system (copyright 1988, Gaussian, Inc.),
 the Gaussian 86(TM) system (copyright 1986, Carnegie Mellon
 University), and the Gaussian 82(TM) system (copyright 1983,
 Carnegie Mellon University). Gaussian is a federally registered
 trademark of Gaussian, Inc.
  
 This software contains proprietary and confidential information,
 including trade secrets, belonging to Gaussian, Inc.
  
 This software is provided under written license and may be
 used, copied, transmitted, or stored only in accord with that
 written license.
  
 The following legend is applicable only to US Government
 contracts under FAR:
  
                    RESTRICTED RIGHTS LEGEND
  
 Use, reproduction and disclosure by the US Government is
 subject to restrictions as set forth in subparagraphs (a)
 and (c) of the Commercial Computer Software - Restricted
 Rights clause in FAR 52.227-19.
  
 Gaussian, Inc.
 340 Quinnipiac St., Bldg. 40, Wallingford CT 06492
  
  
 ---------------------------------------------------------------
 Warning -- This program may not be used in any manner that
 competes with the business of Gaussian, Inc. or will provide
 assistance to any competitor of Gaussian, Inc.  The licensee
 of this program is prohibited from giving any competitor of
 Gaussian, Inc. access to this program.  By using this program,
 the user acknowledges that Gaussian, Inc. is engaged in the
 business of creating and licensing software in the field of
 computational chemistry and represents and warrants to the
 licensee that it is not a competitor of Gaussian, Inc. and that
 it will not use this program in any manner prohibited above.
 ---------------------------------------------------------------
  

 Cite this work as:
 Gaussian 09, Revision D.01,
 M. J. Frisch, G. W. Trucks, H. B. Schlegel, G. E. Scuseria, 
 M. A. Robb, J. R. Cheeseman, G. Scalmani, V. Barone, B. Mennucci, 
 G. A. Petersson, H. Nakatsuji, M. Caricato, X. Li, H. P. Hratchian, 
 A. F. Izmaylov, J. Bloino, G. Zheng, J. L. Sonnenberg, M. Hada, 
 M. Ehara, K. Toyota, R. Fukuda, J. Hasegawa, M. Ishida, T. Nakajima, 
 Y. Honda, O. Kitao, H. Nakai, T. Vreven, J. A. Montgomery, Jr., 
 J. E. Peralta, F. Ogliaro, M. Bearpark, J. J. Heyd, E. Brothers, 
 K. N. Kudin, V. N. Staroverov, T. Keith, R. Kobayashi, J. Normand, 
 K. Raghavachari, A. Rendell, J. C. Burant, S. S. Iyengar, J. Tomasi, 
 M. Cossi, N. Rega, J. M. Millam, M. Klene, J. E. Knox, J. B. Cross, 
 V. Bakken, C. Adamo, J. Jaramillo, R. Gomperts, R. E. Stratmann, 
 O. Yazyev, A. J. Austin, R. Cammi, C. Pomelli, J. W. Ochterski, 
 R. L. Martin, K. Morokuma, V. G. Zakrzewski, G. A. Voth, 
 P. Salvador, J. J. Dannenberg, S. Dapprich, A. D. Daniels, 
 O. Farkas, J. B. Foresman, J. V. Ortiz, J. Cioslowski, 
 and D. J. Fox, Gaussian, Inc., Wallingford CT, 2013.
 
 ******************************************
 Gaussian 09:  ES64L-G09RevD.01 24-Apr-2013
                29-Jun-2017 
 ******************************************
 %Chk=VXh_1a
 %NProcShared=12
 Will use up to   12 processors via shared memory.
 %mem=36000MB
 ----------------------------------------------------------------------
 #P RB3LYP/6-311G(d,p) EmpiricalDispersion(GD3BJ) Opt Freq Geom(Check) 
 Guess(Read)
 ----------------------------------------------------------------------
 1/14=-1,18=20,19=15,26=3,29=2,38=1/1,3;
 2/9=110,12=2,40=1/2;
 3/5=4,6=6,7=101,11=2,14=-4,16=1,25=1,30=1,71=1,74=-5,116=1,124=41/1,2,3;
 4/5=1/1;
 5/5=2,38=6/2;
 6/7=2,8=2,9=2,10=2,28=1/1;
 7//1,2,3,16;
 1/14=-1,18=20,19=15,26=3/3(2);
 2/9=110/2;
 99//99;
 2/9=110/2;
 3/5=4,6=6,7=101,11=2,14=-2,16=1,25=1,30=1,71=1,74=-5,116=1,124=41/1,2,3;
 4/5=5,16=3,69=1/1;
 5/5=2,38=5/2;
 7//1,2,3,16;
 1/14=-1,18=20,19=15,26=3/3(-5);
 2/9=110/2;
 6/7=2,8=2,9=2,10=2,19=2,28=1/1;
 99/9=1/99;
 Leave Link    1 at Thu Jun 29 13:55:21 2017, MaxMem=  4718592000 cpu:         0.7
 (Enter /apps/gaussian/g09_d01/g09/l101.exe)
 -------------------------------
 Geom Opt & Freq Analysis VXh_1a
 -------------------------------
 Structure from the checkpoint file:  "VXh_1a.chk"
 Charge =  0 Multiplicity = 1
 Redundant internal coordinates found in file.
 P,0,-2.5430824925,-0.3664759982,0.0048066219
 S,0,-1.2115505206,-1.5688289245,-1.1232729014
 O,0,-3.4571690543,0.3533695896,-1.1219753243
 C,0,0.3235349372,-1.4980925471,-0.075063006
 C,0,-2.9273819921,1.4227521853,-1.9500582489
 O,0,-1.8288177319,0.5447423287,0.9661060397
 C,0,-3.7784647341,-1.4476731995,0.7722353146
 H,0,-3.2855615469,-2.0109699523,1.5678689766
 H,0,-4.2081153724,-2.1279757132,0.0346960813
 H,0,-4.5661410048,-0.8225740322,1.2013147542
 H,0,-3.486803397,1.3543274936,-2.8866097163
 H,0,-1.8737447251,1.2223029839,-2.1723086025
 C,0,-3.1135986787,2.7768160256,-1.2858479381
 H,0,-2.7624727545,3.5684601204,-1.9566119932
 H,0,-2.5482952829,2.8281840156,-0.3525360172
 H,0,-4.169925656,2.9559812631,-1.0659725196
 C,0,1.1990610165,-0.2774479404,-0.4140424998
 H,0,0.0280472588,-1.5182172862,0.9751080123
 H,0,0.8391944233,-2.4331859484,-0.300883936
 H,0,1.3790601161,-0.266896501,-1.4970793619
 N,0,2.4535460342,-0.2636612256,0.3311000833
 H,0,0.6129301953,0.6190049475,-0.1944743539
 C,0,2.6121310496,0.7789837395,1.3596159407
 C,0,3.6692420546,-0.6935727138,-0.3785394061
 C,0,4.1124948249,0.2019784298,-1.5570833702
 C,0,3.5606396544,-2.1555433961,-0.838881851
 H,0,4.4681140977,-0.6582926025,0.3732838321
 H,0,3.62754014,0.6428392932,1.7527173177
 C,0,1.6385265042,0.546424192,2.5258071048
 C,0,2.5026346201,2.2393838315,0.8681625412
 H,0,4.3311230021,1.2220242154,-1.232457672
 H,0,3.3447576151,0.2522929357,-2.3367908043
 H,0,5.0203345768,-0.200245453,-2.0200554826
 H,0,3.281565908,-2.8041999546,-0.0039413571
 H,0,4.5197432224,-2.4997170926,-1.2395894222
 H,0,2.8168473725,-2.2758399388,-1.6344621325
 H,0,1.8366953946,1.2534880459,3.3386519107
 H,0,1.7495086772,-0.4715773315,2.9118204473
 H,0,0.6016347932,0.6899000529,2.2060549892
 H,0,2.6953963844,2.9301938899,1.6962675977
 H,0,1.4996285159,2.4624813524,0.4891233203
 H,0,3.2210462958,2.4602908703,0.0753234057
 O,0,-1.371102841,-1.3178012072,3.0408027692
 H,0,-1.4973765088,-0.493251803,2.5350471768
 H,0,-0.5999349412,-1.15082466,3.5951010898
 Recover connectivity data from disk.
 NAtoms=     45 NQM=       45 NQMF=       0 NMMI=      0 NMMIF=      0
                NMic=       0 NMicF=      0.
                    Isotopes and Nuclear Properties:
 (Nuclear quadrupole moments (NQMom) in fm**2, nuclear magnetic moments (NMagM)
  in nuclear magnetons)

  Atom         1           2           3           4           5           6           7           8           9          10
 IAtWgt=          31          32          16          12          12          16          12           1           1           1
 AtmWgt=  30.9737634  31.9720718  15.9949146  12.0000000  12.0000000  15.9949146  12.0000000   1.0078250   1.0078250   1.0078250
 NucSpn=           1           0           0           0           0           0           0           1           1           1
 AtZEff= -12.9400000 -13.6000000  -5.6000000  -3.6000000  -3.6000000  -5.6000000  -3.6000000  -1.0000000  -1.0000000  -1.0000000
 NQMom=    0.0000000   0.0000000   0.0000000   0.0000000   0.0000000   0.0000000   0.0000000   0.0000000   0.0000000   0.0000000
 NMagM=    1.1316000   0.0000000   0.0000000   0.0000000   0.0000000   0.0000000   0.0000000   2.7928460   2.7928460   2.7928460
 AtZNuc=  15.0000000  16.0000000   8.0000000   6.0000000   6.0000000   8.0000000   6.0000000   1.0000000   1.0000000   1.0000000

  Atom        11          12          13          14          15          16          17          18          19          20
 IAtWgt=           1           1          12           1           1           1          12           1           1           1
 AtmWgt=   1.0078250   1.0078250  12.0000000   1.0078250   1.0078250   1.0078250  12.0000000   1.0078250   1.0078250   1.0078250
 NucSpn=           1           1           0           1           1           1           0           1           1           1
 AtZEff=  -1.0000000  -1.0000000  -3.6000000  -1.0000000  -1.0000000  -1.0000000  -3.6000000  -1.0000000  -1.0000000  -1.0000000
 NQMom=    0.0000000   0.0000000   0.0000000   0.0000000   0.0000000   0.0000000   0.0000000   0.0000000   0.0000000   0.0000000
 NMagM=    2.7928460   2.7928460   0.0000000   2.7928460   2.7928460   2.7928460   0.0000000   2.7928460   2.7928460   2.7928460
 AtZNuc=   1.0000000   1.0000000   6.0000000   1.0000000   1.0000000   1.0000000   6.0000000   1.0000000   1.0000000   1.0000000

  Atom        21          22          23          24          25          26          27          28          29          30
 IAtWgt=          14           1          12          12          12          12           1           1          12          12
 AtmWgt=  14.0030740   1.0078250  12.0000000  12.0000000  12.0000000  12.0000000   1.0078250   1.0078250  12.0000000  12.0000000
 NucSpn=           2           1           0           0           0           0           1           1           0           0
 AtZEff=  -4.5500000  -1.0000000  -3.6000000  -3.6000000  -3.6000000  -3.6000000  -1.0000000  -1.0000000  -3.6000000  -3.6000000
 NQMom=    2.0440000   0.0000000   0.0000000   0.0000000   0.0000000   0.0000000   0.0000000   0.0000000   0.0000000   0.0000000
 NMagM=    0.4037610   2.7928460   0.0000000   0.0000000   0.0000000   0.0000000   2.7928460   2.7928460   0.0000000   0.0000000
 AtZNuc=   7.0000000   1.0000000   6.0000000   6.0000000   6.0000000   6.0000000   1.0000000   1.0000000   6.0000000   6.0000000

  Atom        31          32          33          34          35          36          37          38          39          40
 IAtWgt=           1           1           1           1           1           1           1           1           1           1
 AtmWgt=   1.0078250   1.0078250   1.0078250   1.0078250   1.0078250   1.0078250   1.0078250   1.0078250   1.0078250   1.0078250
 NucSpn=           1           1           1           1           1           1           1           1           1           1
 AtZEff=  -1.0000000  -1.0000000  -1.0000000  -1.0000000  -1.0000000  -1.0000000  -1.0000000  -1.0000000  -1.0000000  -1.0000000
 NQMom=    0.0000000   0.0000000   0.0000000   0.0000000   0.0000000   0.0000000   0.0000000   0.0000000   0.0000000   0.0000000
 NMagM=    2.7928460   2.7928460   2.7928460   2.7928460   2.7928460   2.7928460   2.7928460   2.7928460   2.7928460   2.7928460
 AtZNuc=   1.0000000   1.0000000   1.0000000   1.0000000   1.0000000   1.0000000   1.0000000   1.0000000   1.0000000   1.0000000

  Atom        41          42          43          44          45
 IAtWgt=           1           1          16           1           1
 AtmWgt=   1.0078250   1.0078250  15.9949146   1.0078250   1.0078250
 NucSpn=           1           1           0           1           1
 AtZEff=  -1.0000000  -1.0000000  -5.6000000  -1.0000000  -1.0000000
 NQMom=    0.0000000   0.0000000   0.0000000   0.0000000   0.0000000
 NMagM=    2.7928460   2.7928460   0.0000000   2.7928460   2.7928460
 AtZNuc=   1.0000000   1.0000000   8.0000000   1.0000000   1.0000000
 Leave Link  101 at Thu Jun 29 13:55:21 2017, MaxMem=  4718592000 cpu:         5.0
 (Enter /apps/gaussian/g09_d01/g09/l103.exe)

 GradGradGradGradGradGradGradGradGradGradGradGradGradGradGradGradGradGrad
 Berny optimization.
 Initialization pass.
                           ----------------------------
                           !    Initial Parameters    !
                           ! (Angstroms and Degrees)  !
 --------------------------                            --------------------------
 ! Name  Definition              Value          Derivative Info.                !
 --------------------------------------------------------------------------------
 ! R1    R(1,2)                  2.1192         estimate D2E/DX2                !
 ! R2    R(1,3)                  1.6197         estimate D2E/DX2                !
 ! R3    R(1,6)                  1.5049         estimate D2E/DX2                !
 ! R4    R(1,7)                  1.8122         estimate D2E/DX2                !
 ! R5    R(2,4)                  1.8602         estimate D2E/DX2                !
 ! R6    R(3,5)                  1.4526         estimate D2E/DX2                !
 ! R7    R(4,17)                 1.5399         estimate D2E/DX2                !
 ! R8    R(4,18)                 1.0911         estimate D2E/DX2                !
 ! R9    R(4,19)                 1.0915         estimate D2E/DX2                !
 ! R10   R(5,11)                 1.0931         estimate D2E/DX2                !
 ! R11   R(5,12)                 1.0953         estimate D2E/DX2                !
 ! R12   R(5,13)                 1.5197         estimate D2E/DX2                !
 ! R13   R(7,8)                  1.0924         estimate D2E/DX2                !
 ! R14   R(7,9)                  1.0915         estimate D2E/DX2                !
 ! R15   R(7,10)                 1.0933         estimate D2E/DX2                !
 ! R16   R(13,14)                1.0954         estimate D2E/DX2                !
 ! R17   R(13,15)                1.0924         estimate D2E/DX2                !
 ! R18   R(13,16)                1.0937         estimate D2E/DX2                !
 ! R19   R(17,20)                1.0979         estimate D2E/DX2                !
 ! R20   R(17,21)                1.4592         estimate D2E/DX2                !
 ! R21   R(17,22)                1.0933         estimate D2E/DX2                !
 ! R22   R(18,44)                2.4106         estimate D2E/DX2                !
 ! R23   R(21,23)                1.4731         estimate D2E/DX2                !
 ! R24   R(21,24)                1.4718         estimate D2E/DX2                !
 ! R25   R(23,28)                1.0973         estimate D2E/DX2                !
 ! R26   R(23,29)                1.5369         estimate D2E/DX2                !
 ! R27   R(23,30)                1.5448         estimate D2E/DX2                !
 ! R28   R(24,25)                1.5451         estimate D2E/DX2                !
 ! R29   R(24,26)                1.5366         estimate D2E/DX2                !
 ! R30   R(24,27)                1.0976         estimate D2E/DX2                !
 ! R31   R(25,31)                1.0926         estimate D2E/DX2                !
 ! R32   R(25,32)                1.0954         estimate D2E/DX2                !
 ! R33   R(25,33)                1.0956         estimate D2E/DX2                !
 ! R34   R(26,34)                1.0935         estimate D2E/DX2                !
 ! R35   R(26,35)                1.0949         estimate D2E/DX2                !
 ! R36   R(26,36)                1.0957         estimate D2E/DX2                !
 ! R37   R(29,37)                1.0954         estimate D2E/DX2                !
 ! R38   R(29,38)                1.0944         estimate D2E/DX2                !
 ! R39   R(29,39)                1.0945         estimate D2E/DX2                !
 ! R40   R(30,40)                1.0955         estimate D2E/DX2                !
 ! R41   R(30,41)                1.0952         estimate D2E/DX2                !
 ! R42   R(30,42)                1.0925         estimate D2E/DX2                !
 ! R43   R(43,44)                0.9755         estimate D2E/DX2                !
 ! R44   R(43,45)                0.9643         estimate D2E/DX2                !
 ! A1    A(2,1,3)              103.6759         estimate D2E/DX2                !
 ! A2    A(2,1,6)              112.6659         estimate D2E/DX2                !
 ! A3    A(2,1,7)              108.3754         estimate D2E/DX2                !
 ! A4    A(3,1,6)              116.3053         estimate D2E/DX2                !
 ! A5    A(3,1,7)              100.0809         estimate D2E/DX2                !
 ! A6    A(6,1,7)              114.4758         estimate D2E/DX2                !
 ! A7    A(1,2,4)              101.36           estimate D2E/DX2                !
 ! A8    A(1,3,5)              121.1949         estimate D2E/DX2                !
 ! A9    A(2,4,17)             112.042          estimate D2E/DX2                !
 ! A10   A(2,4,18)             108.5519         estimate D2E/DX2                !
 ! A11   A(2,4,19)             103.9288         estimate D2E/DX2                !
 ! A12   A(17,4,18)            112.3613         estimate D2E/DX2                !
 ! A13   A(17,4,19)            111.4041         estimate D2E/DX2                !
 ! A14   A(18,4,19)            108.1358         estimate D2E/DX2                !
 ! A15   A(3,5,11)             104.8155         estimate D2E/DX2                !
 ! A16   A(3,5,12)             109.3774         estimate D2E/DX2                !
 ! A17   A(3,5,13)             111.2301         estimate D2E/DX2                !
 ! A18   A(11,5,12)            107.879          estimate D2E/DX2                !
 ! A19   A(11,5,13)            111.5654         estimate D2E/DX2                !
 ! A20   A(12,5,13)            111.6926         estimate D2E/DX2                !
 ! A21   A(1,7,8)              107.9686         estimate D2E/DX2                !
 ! A22   A(1,7,9)              110.735          estimate D2E/DX2                !
 ! A23   A(1,7,10)             108.4343         estimate D2E/DX2                !
 ! A24   A(8,7,9)              110.3878         estimate D2E/DX2                !
 ! A25   A(8,7,10)             109.5159         estimate D2E/DX2                !
 ! A26   A(9,7,10)             109.7524         estimate D2E/DX2                !
 ! A27   A(5,13,14)            109.6957         estimate D2E/DX2                !
 ! A28   A(5,13,15)            110.605          estimate D2E/DX2                !
 ! A29   A(5,13,16)            110.6203         estimate D2E/DX2                !
 ! A30   A(14,13,15)           108.8634         estimate D2E/DX2                !
 ! A31   A(14,13,16)           108.3182         estimate D2E/DX2                !
 ! A32   A(15,13,16)           108.6833         estimate D2E/DX2                !
 ! A33   A(4,17,20)            108.5397         estimate D2E/DX2                !
 ! A34   A(4,17,21)            112.5738         estimate D2E/DX2                !
 ! A35   A(4,17,22)            107.5127         estimate D2E/DX2                !
 ! A36   A(20,17,21)           111.2658         estimate D2E/DX2                !
 ! A37   A(20,17,22)           106.1472         estimate D2E/DX2                !
 ! A38   A(21,17,22)           110.5237         estimate D2E/DX2                !
 ! A39   A(4,18,44)            141.846          estimate D2E/DX2                !
 ! A40   A(17,21,23)           117.1149         estimate D2E/DX2                !
 ! A41   A(17,21,24)           117.4604         estimate D2E/DX2                !
 ! A42   A(23,21,24)           117.0291         estimate D2E/DX2                !
 ! A43   A(21,23,28)           105.1839         estimate D2E/DX2                !
 ! A44   A(21,23,29)           110.7622         estimate D2E/DX2                !
 ! A45   A(21,23,30)           116.0638         estimate D2E/DX2                !
 ! A46   A(28,23,29)           107.1935         estimate D2E/DX2                !
 ! A47   A(28,23,30)           107.2688         estimate D2E/DX2                !
 ! A48   A(29,23,30)           109.8501         estimate D2E/DX2                !
 ! A49   A(21,24,25)           115.8109         estimate D2E/DX2                !
 ! A50   A(21,24,26)           111.3445         estimate D2E/DX2                !
 ! A51   A(21,24,27)           105.1609         estimate D2E/DX2                !
 ! A52   A(25,24,26)           110.073          estimate D2E/DX2                !
 ! A53   A(25,24,27)           107.1599         estimate D2E/DX2                !
 ! A54   A(26,24,27)           106.6928         estimate D2E/DX2                !
 ! A55   A(24,25,31)           111.833          estimate D2E/DX2                !
 ! A56   A(24,25,32)           111.6223         estimate D2E/DX2                !
 ! A57   A(24,25,33)           110.3188         estimate D2E/DX2                !
 ! A58   A(31,25,32)           107.9906         estimate D2E/DX2                !
 ! A59   A(31,25,33)           107.6085         estimate D2E/DX2                !
 ! A60   A(32,25,33)           107.2679         estimate D2E/DX2                !
 ! A61   A(24,26,34)           110.7123         estimate D2E/DX2                !
 ! A62   A(24,26,35)           110.2915         estimate D2E/DX2                !
 ! A63   A(24,26,36)           111.7128         estimate D2E/DX2                !
 ! A64   A(34,26,35)           108.4525         estimate D2E/DX2                !
 ! A65   A(34,26,36)           108.4225         estimate D2E/DX2                !
 ! A66   A(35,26,36)           107.1197         estimate D2E/DX2                !
 ! A67   A(23,29,37)           110.5356         estimate D2E/DX2                !
 ! A68   A(23,29,38)           110.1309         estimate D2E/DX2                !
 ! A69   A(23,29,39)           111.016          estimate D2E/DX2                !
 ! A70   A(37,29,38)           108.684          estimate D2E/DX2                !
 ! A71   A(37,29,39)           107.671          estimate D2E/DX2                !
 ! A72   A(38,29,39)           108.7268         estimate D2E/DX2                !
 ! A73   A(23,30,40)           110.0713         estimate D2E/DX2                !
 ! A74   A(23,30,41)           111.5678         estimate D2E/DX2                !
 ! A75   A(23,30,42)           112.0513         estimate D2E/DX2                !
 ! A76   A(40,30,41)           107.1159         estimate D2E/DX2                !
 ! A77   A(40,30,42)           107.7802         estimate D2E/DX2                !
 ! A78   A(41,30,42)           108.0522         estimate D2E/DX2                !
 ! A79   A(44,43,45)           104.7843         estimate D2E/DX2                !
 ! A80   A(18,44,43)            83.9264         estimate D2E/DX2                !
 ! D1    D(3,1,2,4)            146.4902         estimate D2E/DX2                !
 ! D2    D(6,1,2,4)             19.9152         estimate D2E/DX2                !
 ! D3    D(7,1,2,4)           -107.8067         estimate D2E/DX2                !
 ! D4    D(2,1,3,5)            -73.4046         estimate D2E/DX2                !
 ! D5    D(6,1,3,5)             50.8384         estimate D2E/DX2                !
 ! D6    D(7,1,3,5)            174.7078         estimate D2E/DX2                !
 ! D7    D(2,1,7,8)             71.5553         estimate D2E/DX2                !
 ! D8    D(2,1,7,9)            -49.4003         estimate D2E/DX2                !
 ! D9    D(2,1,7,10)          -169.8707         estimate D2E/DX2                !
 ! D10   D(3,1,7,8)            179.7408         estimate D2E/DX2                !
 ! D11   D(3,1,7,9)             58.7852         estimate D2E/DX2                !
 ! D12   D(3,1,7,10)           -61.6852         estimate D2E/DX2                !
 ! D13   D(6,1,7,8)            -55.1263         estimate D2E/DX2                !
 ! D14   D(6,1,7,9)           -176.0819         estimate D2E/DX2                !
 ! D15   D(6,1,7,10)            63.4477         estimate D2E/DX2                !
 ! D16   D(1,2,4,17)           -86.8938         estimate D2E/DX2                !
 ! D17   D(1,2,4,18)            37.7744         estimate D2E/DX2                !
 ! D18   D(1,2,4,19)           152.7044         estimate D2E/DX2                !
 ! D19   D(1,3,5,11)           151.1954         estimate D2E/DX2                !
 ! D20   D(1,3,5,12)            35.7493         estimate D2E/DX2                !
 ! D21   D(1,3,5,13)           -88.0982         estimate D2E/DX2                !
 ! D22   D(2,4,17,20)          -52.1261         estimate D2E/DX2                !
 ! D23   D(2,4,17,21)         -175.7478         estimate D2E/DX2                !
 ! D24   D(2,4,17,22)           62.293          estimate D2E/DX2                !
 ! D25   D(18,4,17,20)        -174.6548         estimate D2E/DX2                !
 ! D26   D(18,4,17,21)          61.7234         estimate D2E/DX2                !
 ! D27   D(18,4,17,22)         -60.2358         estimate D2E/DX2                !
 ! D28   D(19,4,17,20)          63.8272         estimate D2E/DX2                !
 ! D29   D(19,4,17,21)         -59.7945         estimate D2E/DX2                !
 ! D30   D(19,4,17,22)         178.2463         estimate D2E/DX2                !
 ! D31   D(2,4,18,44)          -48.0411         estimate D2E/DX2                !
 ! D32   D(17,4,18,44)          76.438          estimate D2E/DX2                !
 ! D33   D(19,4,18,44)        -160.1957         estimate D2E/DX2                !
 ! D34   D(3,5,13,14)         -176.538          estimate D2E/DX2                !
 ! D35   D(3,5,13,15)           63.3653         estimate D2E/DX2                !
 ! D36   D(3,5,13,16)          -57.1073         estimate D2E/DX2                !
 ! D37   D(11,5,13,14)         -59.8898         estimate D2E/DX2                !
 ! D38   D(11,5,13,15)        -179.9864         estimate D2E/DX2                !
 ! D39   D(11,5,13,16)          59.5409         estimate D2E/DX2                !
 ! D40   D(12,5,13,14)          60.9407         estimate D2E/DX2                !
 ! D41   D(12,5,13,15)         -59.1559         estimate D2E/DX2                !
 ! D42   D(12,5,13,16)        -179.6286         estimate D2E/DX2                !
 ! D43   D(4,17,21,23)        -110.9281         estimate D2E/DX2                !
 ! D44   D(4,17,21,24)         101.7738         estimate D2E/DX2                !
 ! D45   D(20,17,21,23)        126.9785         estimate D2E/DX2                !
 ! D46   D(20,17,21,24)        -20.3197         estimate D2E/DX2                !
 ! D47   D(22,17,21,23)          9.3104         estimate D2E/DX2                !
 ! D48   D(22,17,21,24)       -137.9878         estimate D2E/DX2                !
 ! D49   D(4,18,44,43)         156.3525         estimate D2E/DX2                !
 ! D50   D(17,21,23,28)       -177.1256         estimate D2E/DX2                !
 ! D51   D(17,21,23,29)         67.3783         estimate D2E/DX2                !
 ! D52   D(17,21,23,30)        -58.756          estimate D2E/DX2                !
 ! D53   D(24,21,23,28)        -29.6852         estimate D2E/DX2                !
 ! D54   D(24,21,23,29)       -145.1814         estimate D2E/DX2                !
 ! D55   D(24,21,23,30)         88.6843         estimate D2E/DX2                !
 ! D56   D(17,21,24,25)         64.9534         estimate D2E/DX2                !
 ! D57   D(17,21,24,26)        -61.7971         estimate D2E/DX2                !
 ! D58   D(17,21,24,27)       -176.973          estimate D2E/DX2                !
 ! D59   D(23,21,24,25)        -82.3729         estimate D2E/DX2                !
 ! D60   D(23,21,24,26)        150.8767         estimate D2E/DX2                !
 ! D61   D(23,21,24,27)         35.7007         estimate D2E/DX2                !
 ! D62   D(21,23,29,37)        173.5295         estimate D2E/DX2                !
 ! D63   D(21,23,29,38)         53.4199         estimate D2E/DX2                !
 ! D64   D(21,23,29,39)        -67.0536         estimate D2E/DX2                !
 ! D65   D(28,23,29,37)         59.2921         estimate D2E/DX2                !
 ! D66   D(28,23,29,38)        -60.8175         estimate D2E/DX2                !
 ! D67   D(28,23,29,39)        178.7091         estimate D2E/DX2                !
 ! D68   D(30,23,29,37)        -56.9443         estimate D2E/DX2                !
 ! D69   D(30,23,29,38)       -177.054          estimate D2E/DX2                !
 ! D70   D(30,23,29,39)         62.4726         estimate D2E/DX2                !
 ! D71   D(21,23,30,40)       -176.5674         estimate D2E/DX2                !
 ! D72   D(21,23,30,41)         64.6588         estimate D2E/DX2                !
 ! D73   D(21,23,30,42)        -56.6485         estimate D2E/DX2                !
 ! D74   D(28,23,30,40)        -59.3492         estimate D2E/DX2                !
 ! D75   D(28,23,30,41)       -178.1229         estimate D2E/DX2                !
 ! D76   D(28,23,30,42)         60.5698         estimate D2E/DX2                !
 ! D77   D(29,23,30,40)         56.8399         estimate D2E/DX2                !
 ! D78   D(29,23,30,41)        -61.9339         estimate D2E/DX2                !
 ! D79   D(29,23,30,42)        176.7588         estimate D2E/DX2                !
 ! D80   D(21,24,25,31)         60.4128         estimate D2E/DX2                !
 ! D81   D(21,24,25,32)        -60.6995         estimate D2E/DX2                !
 ! D82   D(21,24,25,33)       -179.8607         estimate D2E/DX2                !
 ! D83   D(26,24,25,31)       -172.2004         estimate D2E/DX2                !
 ! D84   D(26,24,25,32)         66.6873         estimate D2E/DX2                !
 ! D85   D(26,24,25,33)        -52.4739         estimate D2E/DX2                !
 ! D86   D(27,24,25,31)        -56.5488         estimate D2E/DX2                !
 ! D87   D(27,24,25,32)       -177.6611         estimate D2E/DX2                !
 ! D88   D(27,24,25,33)         63.1777         estimate D2E/DX2                !
 ! D89   D(21,24,26,34)        -52.1647         estimate D2E/DX2                !
 ! D90   D(21,24,26,35)       -172.2033         estimate D2E/DX2                !
 ! D91   D(21,24,26,36)         68.7811         estimate D2E/DX2                !
 ! D92   D(25,24,26,34)        178.0066         estimate D2E/DX2                !
 ! D93   D(25,24,26,35)         57.968          estimate D2E/DX2                !
 ! D94   D(25,24,26,36)        -61.0476         estimate D2E/DX2                !
 ! D95   D(27,24,26,34)         62.0609         estimate D2E/DX2                !
 ! D96   D(27,24,26,35)        -57.9777         estimate D2E/DX2                !
 ! D97   D(27,24,26,36)       -176.9933         estimate D2E/DX2                !
 ! D98   D(45,43,44,18)         88.0055         estimate D2E/DX2                !
 --------------------------------------------------------------------------------
 Trust Radius=3.00D-01 FncErr=1.00D-07 GrdErr=1.00D-06
 Number of steps in this run=    232 maximum allowed number of steps=    270.
 GradGradGradGradGradGradGradGradGradGradGradGradGradGradGradGradGradGrad

 Leave Link  103 at Thu Jun 29 13:55:21 2017, MaxMem=  4718592000 cpu:         0.1
 (Enter /apps/gaussian/g09_d01/g09/l202.exe)
                          Input orientation:                          
 ---------------------------------------------------------------------
 Center     Atomic      Atomic             Coordinates (Angstroms)
 Number     Number       Type             X           Y           Z
 ---------------------------------------------------------------------
      1         15           0       -2.543082   -0.366476    0.004807
      2         16           0       -1.211551   -1.568829   -1.123273
      3          8           0       -3.457169    0.353370   -1.121975
      4          6           0        0.323535   -1.498093   -0.075063
      5          6           0       -2.927382    1.422752   -1.950058
      6          8           0       -1.828818    0.544742    0.966106
      7          6           0       -3.778465   -1.447673    0.772235
      8          1           0       -3.285562   -2.010970    1.567869
      9          1           0       -4.208115   -2.127976    0.034696
     10          1           0       -4.566141   -0.822574    1.201315
     11          1           0       -3.486803    1.354327   -2.886610
     12          1           0       -1.873745    1.222303   -2.172309
     13          6           0       -3.113599    2.776816   -1.285848
     14          1           0       -2.762473    3.568460   -1.956612
     15          1           0       -2.548295    2.828184   -0.352536
     16          1           0       -4.169926    2.955981   -1.065973
     17          6           0        1.199061   -0.277448   -0.414042
     18          1           0        0.028047   -1.518217    0.975108
     19          1           0        0.839194   -2.433186   -0.300884
     20          1           0        1.379060   -0.266897   -1.497079
     21          7           0        2.453546   -0.263661    0.331100
     22          1           0        0.612930    0.619005   -0.194474
     23          6           0        2.612131    0.778984    1.359616
     24          6           0        3.669242   -0.693573   -0.378539
     25          6           0        4.112495    0.201978   -1.557083
     26          6           0        3.560640   -2.155543   -0.838882
     27          1           0        4.468114   -0.658293    0.373284
     28          1           0        3.627540    0.642839    1.752717
     29          6           0        1.638527    0.546424    2.525807
     30          6           0        2.502635    2.239384    0.868163
     31          1           0        4.331123    1.222024   -1.232458
     32          1           0        3.344758    0.252293   -2.336791
     33          1           0        5.020335   -0.200245   -2.020055
     34          1           0        3.281566   -2.804200   -0.003941
     35          1           0        4.519743   -2.499717   -1.239589
     36          1           0        2.816847   -2.275840   -1.634462
     37          1           0        1.836695    1.253488    3.338652
     38          1           0        1.749509   -0.471577    2.911820
     39          1           0        0.601635    0.689900    2.206055
     40          1           0        2.695396    2.930194    1.696268
     41          1           0        1.499629    2.462481    0.489123
     42          1           0        3.221046    2.460291    0.075323
     43          8           0       -1.371103   -1.317801    3.040803
     44          1           0       -1.497377   -0.493252    2.535047
     45          1           0       -0.599935   -1.150825    3.595101
 ---------------------------------------------------------------------
                    Distance matrix (angstroms):
                    1          2          3          4          5
     1  P    0.000000
     2  S    2.119244   0.000000
     3  O    1.619682   2.955952   0.000000
     4  C    3.082926   1.860171   4.337933   0.000000
     5  C    2.677783   3.546436   1.452575   4.755565   0.000000
     6  O    1.504855   3.035409   2.654851   3.144810   3.237554
     7  C    1.812210   3.193224   2.633443   4.188897   4.046550
     8  H    2.387216   3.426260   3.585361   3.998480   4.928950
     9  H    2.424069   3.260819   2.838817   4.576533   4.264645
    10  H    2.394248   4.148961   2.830254   5.098470   4.202163
    11  H    3.494576   4.102557   2.028973   5.528089   1.093052
    12  H    2.777060   3.054406   2.089373   4.077625   1.095320
    13  C    3.445513   4.746456   2.453159   5.617360   1.519652
    14  H    4.402161   5.430613   3.393527   6.223634   2.152046
    15  H    3.214588   4.659897   2.746415   5.200103   2.161255
    16  H    3.851222   5.406401   2.699027   6.404051   2.162479
    17  C    3.766563   2.825194   4.751797   1.539944   4.719911
    18  H    2.979715   2.437697   4.477424   1.091136   5.093178
    19  H    3.975492   2.372550   5.186311   1.091467   5.636944
    20  H    4.201045   2.923358   4.890250   2.156875   4.648177
    21  N    5.008327   4.153504   6.117901   2.495143   6.082932
    22  H    3.312296   2.996333   4.182885   2.140119   4.032604
    23  C    5.451955   5.128109   6.570833   3.532853   6.484951
    24  C    6.232730   5.014263   7.241168   3.454433   7.103798
    25  C    6.859982   5.627558   7.583670   4.409404   7.155738
    26  C    6.416229   4.816525   7.458178   3.390355   7.492218
    27  H    7.026935   5.943681   8.128307   4.252507   8.026333
    28  H    6.492341   6.048107   7.651193   4.340601   7.568739
    29  C    4.967362   5.090483   6.269745   3.560025   6.453591
    30  C    5.744140   5.680094   6.560256   4.427966   6.172061
    31  H    7.163020   6.206610   7.837363   4.979896   7.296652
    32  H    6.366523   5.054607   6.910297   4.160174   6.392126
    33  H    7.831537   6.443107   8.542898   5.246649   8.112042
    34  H    6.314199   4.792404   7.525343   3.234335   7.759222
    35  H    7.482162   5.807565   8.472607   4.468505   8.446905
    36  H    5.921294   4.121792   6.821926   3.041911   6.839251
    37  H    5.737705   6.096396   6.980860   4.638351   7.120080
    38  H    5.185375   5.123847   6.637887   3.465344   7.007115
    39  H    3.981290   4.412927   5.259556   3.173035   5.501301
    40  H    6.416442   6.592060   7.241311   5.326637   6.869040
    41  H    4.957930   5.118767   5.622618   4.169850   5.160336
    42  H    6.420340   6.108875   7.104309   4.907850   6.556053
    43  O    3.390550   4.174685   4.947040   3.551468   5.902655
    44  H    2.740746   3.823855   4.234545   3.337379   5.082535
    45  H    4.157071   4.776176   5.716397   3.800460   6.541338
                    6          7          8          9         10
     6  O    0.000000
     7  C    2.794357   0.000000
     8  H    3.002647   1.092378   0.000000
     9  H    3.697567   1.091501   1.793158   0.000000
    10  H    3.068846   1.093294   1.785086   1.786968   0.000000
    11  H    4.271740   4.617729   5.586422   4.602255   4.755523
    12  H    3.211036   4.407615   5.141615   4.641608   4.776176
    13  C    3.421127   4.745952   5.576394   5.196036   4.609931
    14  H    4.307768   5.800038   6.620093   6.205205   5.701482
    15  H    2.733234   4.589268   5.258225   5.241037   4.451313
    16  H    3.927366   4.787946   5.691206   5.201879   4.424371
    17  C    3.427661   5.249042   5.200472   5.732659   6.011996
    18  H    2.775578   3.812567   3.402084   4.381924   4.652059
    19  H    4.194235   4.842065   4.547979   5.067653   5.836808
    20  H    4.125109   5.757090   5.847597   6.084939   6.552520
    21  N    4.404020   6.358808   6.125360   6.923962   7.095468
    22  H    2.704551   4.948741   5.022037   5.553459   5.554202
    23  C    4.464498   6.792844   6.527633   7.531374   7.356469
    24  C    5.793976   7.573723   7.341208   8.017545   8.386544
    25  C    6.463990   8.391324   8.330288   8.786069   9.163907
    26  C    6.292517   7.547134   7.258362   7.817765   8.484325
    27  H    6.438174   8.293874   7.960921   8.806337   9.073609
    28  H    5.513640   7.757609   7.407283   8.486843   8.341936
    29  C    3.801992   6.032846   5.630680   6.895018   6.490480
    30  C    4.652191   7.283941   7.215145   8.050010   7.710653
    31  H    6.575505   8.769920   8.735443   9.259955   9.448012
    32  H    6.144960   7.955892   8.020590   8.266530   8.732459
    33  H    7.508865   9.315140   9.227125   9.648960  10.132375
    34  H    6.186471   7.230951   6.799041   7.520246   8.183275
    35  H    7.378215   8.603167   8.309241   8.828222   9.556365
    36  H    6.025018   7.069384   6.896700   7.222053   8.041277
    37  H    4.423492   6.738901   6.326917   7.673992   7.062192
    38  H    4.197991   6.007419   5.433955   6.820175   6.552592
    39  H    2.732333   5.080387   4.776220   5.982384   5.477498
    40  H    5.166433   7.869589   7.759088   8.718049   8.188905
    41  H    3.870890   6.574780   6.638788   7.338742   6.934866
    42  H    5.473933   8.046802   8.034663   8.731912   8.525570
    43  O    2.825409   3.310386   2.513000   4.212090   3.719843
    44  H    1.910199   3.036740   2.537027   4.033879   3.362233
    45  H    3.361059   4.261425   3.473055   5.162390   4.644217
                   11         12         13         14         15
    11  H    0.000000
    12  H    1.769072   0.000000
    13  C    2.173751   2.177053   0.000000
    14  H    2.508373   2.518098   1.095406   0.000000
    15  H    3.078081   2.519017   1.092373   1.779590   0.000000
    16  H    2.519260   3.082542   1.093742   1.774625   1.776234
    17  C    5.543790   3.844852   5.356081   5.732738   4.867382
    18  H    5.959744   4.586229   5.781797   6.500482   5.224116
    19  H    6.304403   4.921877   6.613535   7.192579   6.257777
    20  H    5.313736   3.640658   5.430726   5.663340   5.129681
    21  N    6.946891   5.215418   6.546153   6.864811   5.919906
    22  H    4.959446   3.234092   4.442326   4.816405   3.859897
    23  C    7.453754   5.726614   6.616177   6.903978   5.810395
    24  C    7.854508   6.132935   7.672922   7.875417   7.145713
    25  C    7.800313   6.103657   7.675922   7.665377   7.260442
    26  C    8.135038   6.536085   8.311041   8.602051   7.898934
    27  H    8.829397   7.087726   8.487347   8.693402   7.868439
    28  H    8.523113   6.782753   7.696083   7.946738   6.881044
    29  C    7.497731   5.904672   6.487377   6.970909   5.569629
    30  C    7.124255   5.425091   6.039095   6.121042   5.229597
    31  H    7.992102   6.275644   7.605531   7.506615   7.119017
    32  H    6.941686   5.310437   7.013420   6.959868   6.730569
    33  H    8.691318   7.040963   8.692688   8.647500   8.320827
    34  H    8.450678   6.891427   8.584239   8.997451   8.113726
    35  H    9.037208   7.456547   9.279647   9.506186   8.895536
    36  H    7.381192   5.876048   7.798785   8.086312   7.515261
    37  H    8.191684   6.643721   6.943482   7.385883   5.944130
    38  H    8.023384   6.468815   7.198770   7.770554   6.325786
    39  H    6.564452   5.057769   5.509225   6.077098   4.587015
    40  H    7.855298   6.225739   6.531536   6.598428   5.630658
    41  H    6.122751   4.472238   4.952898   5.036896   4.150640
    42  H    7.415622   5.704503   6.486964   6.415551   5.796871
    43  O    6.837447   5.820765   6.206616   7.126403   5.485410
    44  H    6.063475   5.024339   5.282495   6.186516   4.524876
    45  H    7.524784   6.365323   6.750447   7.600641   5.934008
                   16         17         18         19         20
    16  H    0.000000
    17  C    6.301277   0.000000
    18  H    6.465867   2.200118   0.000000
    19  H    7.397281   2.188496   1.767281   0.000000
    20  H    6.431488   1.097943   3.082653   2.532814   0.000000
    21  N    7.495885   1.459164   2.805655   2.777116   2.120559
    22  H    5.394134   1.093338   2.505540   3.062415   1.751729
    23  C    7.524566   2.501735   3.478860   4.027232   3.282535
    24  C    8.674351   2.505237   3.971234   3.322868   2.584205
    25  C    8.742094   3.166147   5.104290   4.385958   2.774006
    26  C    9.270431   3.047094   4.021934   2.787973   2.959645
    27  H    9.473656   3.384026   4.562440   4.095584   3.632314
    28  H    8.607910   3.382202   4.269800   4.631855   4.055177
    29  C    7.241889   3.084576   3.043198   4.184159   4.112472
    30  C    6.984086   3.110916   4.500510   5.095744   3.624670
    31  H    8.677681   3.567637   5.558663   5.140229   3.316864
    32  H    8.086741   2.929437   5.010384   4.199352   2.199691
    33  H    9.763858   4.145765   5.969170   5.042173   3.679243
    34  H    9.477992   3.299922   3.632860   2.488173   3.505267
    35  H   10.261829   4.080066   5.103289   3.798952   3.862082
    36  H    8.747007   2.846090   3.893746   2.390460   2.474259
    37  H    7.640595   4.102811   4.066927   5.275680   5.089725
    38  H    7.912692   3.376691   2.794591   3.872732   4.429167
    39  H    6.213620   2.856150   2.592299   4.011838   3.902954
    40  H    7.400222   4.120849   5.236715   6.016639   4.706548
    41  H    5.899636   2.900562   4.271732   5.002784   3.377727
    42  H    7.494980   3.438476   5.180095   5.455352   3.647316
    43  O    6.554710   4.429902   2.502975   4.158890   5.409267
    44  H    5.657479   4.001809   2.410577   4.155167   4.958142
    45  H    7.164935   4.480224   2.719136   4.346751   5.534262
                   21         22         23         24         25
    21  N    0.000000
    22  H    2.107889   0.000000
    23  C    1.473127   2.537241   0.000000
    24  C    1.471845   3.331333   2.511392   0.000000
    25  C    2.556202   3.778567   3.330340   1.545138   0.000000
    26  C    2.484700   4.099069   3.787415   1.536577   2.525523
    27  H    2.053290   4.100766   2.546230   1.097579   2.143093
    28  H    2.054507   3.588871   1.097324   2.515947   3.374066
    29  C    2.477344   2.908100   1.536877   3.754547   4.786351
    30  C    2.560484   2.706623   1.544760   3.393740   3.553096
    31  H    2.859593   3.907173   3.141666   2.199267   1.092554
    32  H    2.859739   3.490971   3.804940   2.198795   1.095397
    33  H    3.481430   4.840365   4.263861   2.182521   1.095582
    34  H    2.692992   4.344681   3.891868   2.178386   3.484222
    35  H    3.425811   5.107042   4.598340   2.174147   2.750602
    36  H    2.836245   3.912920   4.282331   2.192598   2.797190
    37  H    3.424560   3.792513   2.177852   4.578950   5.500287
    38  H    2.683098   3.482851   2.171948   3.815904   5.099851
    39  H    2.802554   2.401603   2.183229   4.243152   5.169663
    40  H    3.481793   3.640490   2.178984   4.287760   4.476117
    41  H    2.892539   2.156837   2.197631   3.926925   4.015458
    42  H    2.841548   3.203965   2.201586   3.217721   2.925646
    43  O    4.804335   4.260824   4.805107   6.122633   7.315745
    44  H    4.529888   3.625024   4.459627   5.934902   6.978505
    45  H    4.556809   4.354793   4.363361   5.850194   7.112108
                   26         27         28         29         30
    26  C    0.000000
    27  H    2.129464   0.000000
    28  H    3.814683   2.074210   0.000000
    29  C    4.724011   3.753833   2.136150   0.000000
    30  C    4.832056   3.536176   2.144016   2.522019   0.000000
    31  H    3.486619   2.476442   3.121178   4.672373   2.964961
    32  H    2.843943   3.071742   4.117835   5.161647   3.863862
    33  H    2.710917   2.498565   4.109073   5.714806   4.542291
    34  H    1.093510   2.480950   3.884280   4.508424   5.177358
    35  H    1.094944   2.448442   4.430077   5.635477   5.565108
    36  H    1.095740   3.061729   4.544106   5.163473   5.171954
    37  H    5.660854   4.401440   2.468847   1.095412   2.742040
    38  H    4.492628   3.724224   2.472336   1.094372   3.477506
    39  H    5.111154   4.486238   3.060038   1.094519   2.793682
    40  H    5.748074   4.215454   2.470642   2.736324   1.095506
    41  H    5.228529   4.308661   3.071771   2.799759   1.095201
    42  H    4.717735   3.371872   2.506395   3.488857   1.092478
    43  O    6.330549   6.453454   5.521749   3.577489   5.690323
    44  H    6.303185   6.347246   5.307308   3.303770   5.123074
    45  H    6.162795   6.025597   4.948045   3.005787   5.343748
                   31         32         33         34         35
    31  H    0.000000
    32  H    1.769985   0.000000
    33  H    1.765835   1.764276   0.000000
    34  H    4.338353   3.845560   3.724058   0.000000
    35  H    3.726525   3.187162   2.479373   1.775562   0.000000
    36  H    3.832713   2.676455   3.051578   1.775873   1.762356
    37  H    5.207514   5.957121   6.400363   5.452102   6.499661
    38  H    5.167984   5.533238   5.924131   4.036087   5.387184
    39  H    5.100550   5.324816   6.178776   4.926951   6.115366
    40  H    3.764423   4.884504   5.386654   6.009790   6.436725
    41  H    3.538352   4.034256   5.077545   5.581787   6.060772
    42  H    2.115624   3.272439   3.834906   5.265435   5.293136
    43  O    7.564843   7.322776   8.228711   5.755621   7.377042
    44  H    7.148963   6.909190   7.957096   5.884321   7.381024
    45  H    7.297333   7.260625   8.001313   5.545521   7.169717
                   36         37         38         39         40
    36  H    0.000000
    37  H    6.176465   0.000000
    38  H    5.006322   1.779224   0.000000
    39  H    5.334075   1.767988   1.778974   0.000000
    40  H    6.181529   2.499227   3.734209   3.108478   0.000000
    41  H    5.356899   3.113694   3.813214   2.626079   1.762332
    42  H    5.051503   3.744611   4.336703   3.812560   1.767647
    43  O    6.349399   4.121918   3.235884   2.935875   6.032384
    44  H    6.258990   3.848755   3.268745   2.431858   5.477488
    45  H    6.347314   3.432733   2.539318   2.600286   5.578485
                   41         42         43         44         45
    41  H    0.000000
    42  H    1.770456   0.000000
    43  O    5.389128   6.644989   0.000000
    44  H    4.680193   6.085817   0.975508   0.000000
    45  H    5.206846   6.326839   0.964276   1.536723   0.000000
 Stoichiometry    C11H28NO3PS
 Framework group  C1[X(C11H28NO3PS)]
 Deg. of freedom   129
 Full point group                 C1      NOp   1
 RotChk:  IX=3 Diff= 2.60D-14
 Largest Abelian subgroup         C1      NOp   1
 Largest concise Abelian subgroup C1      NOp   1
                         Standard orientation:                         
 ---------------------------------------------------------------------
 Center     Atomic      Atomic             Coordinates (Angstroms)
 Number     Number       Type             X           Y           Z
 ---------------------------------------------------------------------
      1         15           0       -2.411637   -0.300217   -0.218845
      2         16           0       -1.085308   -0.069053   -1.855490
      3          8           0       -3.418574    0.960440   -0.360946
      4          6           0        0.498314   -0.733120   -1.140372
      5          6           0       -2.986477    2.308774   -0.036506
      6          8           0       -1.692256   -0.434202    1.096118
      7          6           0       -3.550149   -1.659393   -0.593724
      8          1           0       -2.988606   -2.594680   -0.537190
      9          1           0       -3.984952   -1.536390   -1.587300
     10          1           0       -4.343280   -1.663522    0.158751
     11          1           0       -3.591134    2.957429   -0.675567
     12          1           0       -1.937708    2.433983   -0.326563
     13          6           0       -3.202654    2.616599    1.435857
     14          1           0       -2.926823    3.656887    1.639899
     15          1           0       -2.591473    1.960317    2.059579
     16          1           0       -4.253195    2.479847    1.707763
     17          6           0        1.294009    0.351994   -0.391491
     18          1           0        0.260678   -1.587095   -0.504106
     19          1           0        1.046090   -1.099658   -2.010366
     20          1           0        1.415168    1.217370   -1.056265
     21          7           0        2.584346   -0.130942    0.089094
     22          1           0        0.677492    0.694363    0.444020
     23          6           0        2.746694   -0.275964    1.546048
     24          6           0        3.779886    0.244256   -0.683072
     25          6           0        4.115418    1.752222   -0.713204
     26          6           0        3.718160   -0.310991   -2.114490
     27          1           0        4.615113   -0.263420   -0.183732
     28          1           0        3.787075   -0.594208    1.689040
     29          6           0        1.849256   -1.401237    2.084896
     30          6           0        2.540124    1.005932    2.382921
     31          1           0        4.301150    2.147248    0.288361
     32          1           0        3.305588    2.337020   -1.162738
     33          1           0        5.015736    1.929749   -1.311713
     34          1           0        3.516001   -1.385601   -2.104091
     35          1           0        4.670107   -0.142384   -2.628563
     36          1           0        2.939670    0.182091   -2.707340
     37          1           0        2.055902   -1.583146    3.145148
     38          1           0        2.030135   -2.326233    1.528733
     39          1           0        0.791010   -1.137280    1.993178
     40          1           0        2.742983    0.801632    3.439918
     41          1           0        1.508631    1.368030    2.316806
     42          1           0        3.203547    1.813987    2.066020
     43          8           0       -1.034222   -3.176968    0.931310
     44          1           0       -1.227329   -2.279566    1.261453
     45          1           0       -0.243590   -3.450677    1.410698
 ---------------------------------------------------------------------
 Rotational constants (GHZ):      0.4849153      0.2047034      0.2000238
 Leave Link  202 at Thu Jun 29 13:55:21 2017, MaxMem=  4718592000 cpu:         0.1
 (Enter /apps/gaussian/g09_d01/g09/l301.exe)
 Standard basis: 6-311G(d,p) (5D, 7F)
 Ernie: Thresh=  0.10000D-02 Tol=  0.10000D-05 Strict=F.
 There are   507 symmetry adapted cartesian basis functions of A   symmetry.
 There are   490 symmetry adapted basis functions of A   symmetry.
   490 basis functions,   796 primitive gaussians,   507 cartesian basis functions
    78 alpha electrons       78 beta electrons
       nuclear repulsion energy      1716.8817613046 Hartrees.
 IExCor=  402 DFT=T Ex+Corr=B3LYP ExCW=0 ScaHFX=  0.200000
 ScaDFX=  0.800000  0.720000  1.000000  0.810000 ScalE2=  1.000000  1.000000
 IRadAn=      0 IRanWt=     -1 IRanGd=            0 ICorTp=0 IEmpDi=141
 NAtoms=   45 NActive=   45 NUniq=   45 SFac= 1.00D+00 NAtFMM=   60 NAOKFM=F Big=F
 Integral buffers will be    131072 words long.
 Raffenetti 2 integral format.
 Two-electron integral symmetry is turned on.
 R6Disp:  Grimme-D3(BJ) Dispersion energy=       -0.0881994478 Hartrees.
 Nuclear repulsion after empirical dispersion term =     1716.7935618568 Hartrees.
 Leave Link  301 at Thu Jun 29 13:55:21 2017, MaxMem=  4718592000 cpu:         0.6
 (Enter /apps/gaussian/g09_d01/g09/l302.exe)
 NPDir=0 NMtPBC=     1 NCelOv=     1 NCel=       1 NClECP=     1 NCelD=      1
         NCelK=      1 NCelE2=     1 NClLst=     1 CellRange=     0.0.
 One-electron integrals computed using PRISM.
 NBasis=   490 RedAO= T EigKep=  1.78D-03  NBF=   490
 NBsUse=   490 1.00D-06 EigRej= -1.00D+00 NBFU=   490
 Precomputing XC quadrature grid using
 IXCGrd= 4 IRadAn=           0 IRanWt=          -1 IRanGd=           0 AccXCQ= 0.00D+00.
 Generated NRdTot=       0 NPtTot=           0 NUsed=           0 NTot=          32
 NSgBfM=   504   504   505   506   506 MxSgAt=    45 MxSgA2=    45.
 Leave Link  302 at Thu Jun 29 13:55:22 2017, MaxMem=  4718592000 cpu:         9.1
 (Enter /apps/gaussian/g09_d01/g09/l303.exe)
 DipDrv:  MaxL=1.
 Leave Link  303 at Thu Jun 29 13:55:22 2017, MaxMem=  4718592000 cpu:         0.9
 (Enter /apps/gaussian/g09_d01/g09/l401.exe)
 Initial guess from the checkpoint file:  "VXh_1a.chk"
 B after Tr=     0.000000    0.000000    0.000000
         Rot=    1.000000    0.000000    0.000000    0.000000 Ang=   0.00 deg.
 Guess basis will be translated and rotated to current coordinates.
 JPrj=2 DoOrth=T DoCkMO=T.
 Leave Link  401 at Thu Jun 29 13:55:23 2017, MaxMem=  4718592000 cpu:         5.8
 (Enter /apps/gaussian/g09_d01/g09/l502.exe)
 Closed shell SCF:
 Using DIIS extrapolation, IDIIS=  1040.
 Integral symmetry usage will be decided dynamically.
 IVT=      799614 IEndB=      799614 NGot=  4718592000 MDV=  4718066583
 LenX=  4718066583 LenY=  4717809027
 Requested convergence on RMS density matrix=1.00D-08 within 128 cycles.
 Requested convergence on MAX density matrix=1.00D-06.
 Requested convergence on             energy=1.00D-06.
 No special actions if energy rises.
 Fock matrices will be formed incrementally for  20 cycles.

 Cycle   1  Pass 1  IDiag  1:
 FoFJK:  IHMeth= 1 ICntrl=       0 DoSepK=F KAlg= 0 I1Cent=   0 FoldK=F
 IRaf= 760000000 NMat=   1 IRICut=       1 DoRegI=T DoRafI=F ISym2E= 0.
 FoFCou: FMM=F IPFlag=           0 FMFlag=      100000 FMFlg1=           0
         NFxFlg=           0 DoJE=F BraDBF=F KetDBF=F FulRan=T
         wScrn=  0.000000 ICntrl=       0 IOpCl=  0 I1Cent=           0 NGrid=           0
         NMat0=    1 NMatS0=      1 NMatT0=    0 NMatD0=    1 NMtDS0=    0 NMtDT0=    0
 Symmetry not used in FoFCou.
 E= -1456.30305940056    
 DIIS: error= 4.17D-02 at cycle   1 NSaved=   1.
 NSaved= 1 IEnMin= 1 EnMin= -1456.30305940056     IErMin= 1 ErrMin= 4.17D-02
 ErrMax= 4.17D-02  0.00D+00 EMaxC= 1.00D-01 BMatC= 1.34D+00 BMatP= 1.34D+00
 IDIUse=3 WtCom= 5.83D-01 WtEn= 4.17D-01
 Coeff-Com:  0.100D+01
 Coeff-En:   0.100D+01
 Coeff:      0.100D+01
 Gap=     0.476 Goal=   None    Shift=    0.000
 GapD=    0.476 DampG=2.000 DampE=0.500 DampFc=1.0000 IDamp=-1.
 RMSDP=1.08D-03 MaxDP=5.30D-02              OVMax= 2.85D-02

 Cycle   2  Pass 1  IDiag  1:
 RMSU=  1.07D-03    CP:  9.87D-01
 E= -1456.41158772641     Delta-E=       -0.108528325854 Rises=F Damp=F
 DIIS: error= 2.58D-03 at cycle   2 NSaved=   2.
 NSaved= 2 IEnMin= 2 EnMin= -1456.41158772641     IErMin= 2 ErrMin= 2.58D-03
 ErrMax= 2.58D-03  0.00D+00 EMaxC= 1.00D-01 BMatC= 4.64D-03 BMatP= 1.34D+00
 IDIUse=3 WtCom= 9.74D-01 WtEn= 2.58D-02
 Coeff-Com:  0.127D-01 0.987D+00
 Coeff-En:   0.000D+00 0.100D+01
 Coeff:      0.123D-01 0.988D+00
 Gap=     0.204 Goal=   None    Shift=    0.000
 RMSDP=2.35D-04 MaxDP=1.57D-02 DE=-1.09D-01 OVMax= 2.48D-02

 Cycle   3  Pass 1  IDiag  1:
 RMSU=  2.33D-04    CP:  9.89D-01  1.02D+00
 E= -1456.40803477972     Delta-E=        0.003552946687 Rises=F Damp=F
 DIIS: error= 4.59D-03 at cycle   3 NSaved=   3.
 NSaved= 3 IEnMin= 2 EnMin= -1456.41158772641     IErMin= 2 ErrMin= 2.58D-03
 ErrMax= 4.59D-03  0.00D+00 EMaxC= 1.00D-01 BMatC= 7.71D-03 BMatP= 4.64D-03
 IDIUse=3 WtCom= 1.29D-01 WtEn= 8.71D-01
 Coeff-Com:  0.392D-02 0.574D+00 0.422D+00
 Coeff-En:   0.000D+00 0.706D+00 0.294D+00
 Coeff:      0.505D-03 0.689D+00 0.310D+00
 Gap=     0.204 Goal=   None    Shift=    0.000
 RMSDP=1.38D-04 MaxDP=8.98D-03 DE= 3.55D-03 OVMax= 1.53D-02

 Cycle   4  Pass 1  IDiag  1:
 RMSU=  5.01D-05    CP:  9.88D-01  1.03D+00  4.55D-01
 E= -1456.41355818345     Delta-E=       -0.005523403725 Rises=F Damp=F
 DIIS: error= 3.85D-04 at cycle   4 NSaved=   4.
 NSaved= 4 IEnMin= 4 EnMin= -1456.41355818345     IErMin= 4 ErrMin= 3.85D-04
 ErrMax= 3.85D-04  0.00D+00 EMaxC= 1.00D-01 BMatC= 1.74D-04 BMatP= 4.64D-03
 IDIUse=3 WtCom= 9.96D-01 WtEn= 3.85D-03
 Coeff-Com: -0.612D-04 0.175D+00 0.533D-01 0.772D+00
 Coeff-En:   0.000D+00 0.000D+00 0.000D+00 0.100D+01
 Coeff:     -0.610D-04 0.174D+00 0.531D-01 0.773D+00
 Gap=     0.204 Goal=   None    Shift=    0.000
 RMSDP=3.39D-05 MaxDP=1.65D-03 DE=-5.52D-03 OVMax= 2.16D-03

 Cycle   5  Pass 1  IDiag  1:
 RMSU=  2.25D-05    CP:  9.87D-01  1.03D+00  3.98D-01  5.75D-01
 E= -1456.41359466865     Delta-E=       -0.000036485198 Rises=F Damp=F
 DIIS: error= 2.99D-04 at cycle   5 NSaved=   5.
 NSaved= 5 IEnMin= 5 EnMin= -1456.41359466865     IErMin= 5 ErrMin= 2.99D-04
 ErrMax= 2.99D-04  0.00D+00 EMaxC= 1.00D-01 BMatC= 7.25D-05 BMatP= 1.74D-04
 IDIUse=3 WtCom= 9.97D-01 WtEn= 2.99D-03
 Coeff-Com: -0.222D-03 0.790D-01 0.141D-01 0.470D+00 0.437D+00
 Coeff-En:   0.000D+00 0.000D+00 0.000D+00 0.381D+00 0.619D+00
 Coeff:     -0.221D-03 0.788D-01 0.140D-01 0.469D+00 0.438D+00
 Gap=     0.204 Goal=   None    Shift=    0.000
 RMSDP=1.60D-05 MaxDP=8.26D-04 DE=-3.65D-05 OVMax= 1.41D-03

 Cycle   6  Pass 1  IDiag  1:
 RMSU=  5.09D-06    CP:  9.87D-01  1.03D+00  4.02D-01  7.63D-01  4.78D-01
 E= -1456.41364982866     Delta-E=       -0.000055160009 Rises=F Damp=F
 DIIS: error= 6.06D-05 at cycle   6 NSaved=   6.
 NSaved= 6 IEnMin= 6 EnMin= -1456.41364982866     IErMin= 6 ErrMin= 6.06D-05
 ErrMax= 6.06D-05  0.00D+00 EMaxC= 1.00D-01 BMatC= 2.49D-06 BMatP= 7.25D-05
 IDIUse=1 WtCom= 1.00D+00 WtEn= 0.00D+00
 Coeff-Com: -0.931D-04 0.184D-01 0.326D-02 0.132D+00 0.199D+00 0.648D+00
 Coeff:     -0.931D-04 0.184D-01 0.326D-02 0.132D+00 0.199D+00 0.648D+00
 Gap=     0.204 Goal=   None    Shift=    0.000
 RMSDP=3.12D-06 MaxDP=2.48D-04 DE=-5.52D-05 OVMax= 3.56D-04

 Cycle   7  Pass 1  IDiag  1:
 RMSU=  2.01D-06    CP:  9.87D-01  1.03D+00  4.05D-01  7.71D-01  5.22D-01
                    CP:  6.06D-01
 E= -1456.41365109237     Delta-E=       -0.000001263714 Rises=F Damp=F
 DIIS: error= 2.20D-05 at cycle   7 NSaved=   7.
 NSaved= 7 IEnMin= 7 EnMin= -1456.41365109237     IErMin= 7 ErrMin= 2.20D-05
 ErrMax= 2.20D-05  0.00D+00 EMaxC= 1.00D-01 BMatC= 4.89D-07 BMatP= 2.49D-06
 IDIUse=1 WtCom= 1.00D+00 WtEn= 0.00D+00
 Coeff-Com: -0.324D-04 0.410D-02 0.852D-03 0.404D-01 0.843D-01 0.387D+00
 Coeff-Com:  0.483D+00
 Coeff:     -0.324D-04 0.410D-02 0.852D-03 0.404D-01 0.843D-01 0.387D+00
 Coeff:      0.483D+00
 Gap=     0.204 Goal=   None    Shift=    0.000
 RMSDP=1.38D-06 MaxDP=7.95D-05 DE=-1.26D-06 OVMax= 1.21D-04

 Cycle   8  Pass 1  IDiag  1:
 RMSU=  3.81D-07    CP:  9.87D-01  1.03D+00  4.04D-01  7.60D-01  5.32D-01
                    CP:  7.44D-01  5.31D-01
 E= -1456.41365149660     Delta-E=       -0.000000404231 Rises=F Damp=F
 DIIS: error= 5.38D-06 at cycle   8 NSaved=   8.
 NSaved= 8 IEnMin= 8 EnMin= -1456.41365149660     IErMin= 8 ErrMin= 5.38D-06
 ErrMax= 5.38D-06  0.00D+00 EMaxC= 1.00D-01 BMatC= 9.29D-09 BMatP= 4.89D-07
 IDIUse=1 WtCom= 1.00D+00 WtEn= 0.00D+00
 Coeff-Com: -0.667D-05 0.515D-03 0.913D-04 0.841D-02 0.220D-01 0.113D+00
 Coeff-Com:  0.188D+00 0.669D+00
 Coeff:     -0.667D-05 0.515D-03 0.913D-04 0.841D-02 0.220D-01 0.113D+00
 Coeff:      0.188D+00 0.669D+00
 Gap=     0.204 Goal=   None    Shift=    0.000
 RMSDP=2.45D-07 MaxDP=2.12D-05 DE=-4.04D-07 OVMax= 1.92D-05

 Cycle   9  Pass 1  IDiag  1:
 RMSU=  1.56D-07    CP:  9.87D-01  1.03D+00  4.04D-01  7.60D-01  5.33D-01
                    CP:  7.52D-01  5.75D-01  6.39D-01
 E= -1456.41365150174     Delta-E=       -0.000000005142 Rises=F Damp=F
 DIIS: error= 2.82D-06 at cycle   9 NSaved=   9.
 NSaved= 9 IEnMin= 9 EnMin= -1456.41365150174     IErMin= 9 ErrMin= 2.82D-06
 ErrMax= 2.82D-06  0.00D+00 EMaxC= 1.00D-01 BMatC= 2.24D-09 BMatP= 9.29D-09
 IDIUse=1 WtCom= 1.00D+00 WtEn= 0.00D+00
 Coeff-Com: -0.485D-07-0.165D-03-0.380D-04-0.906D-03-0.186D-03 0.380D-02
 Coeff-Com:  0.310D-01 0.360D+00 0.606D+00
 Coeff:     -0.485D-07-0.165D-03-0.380D-04-0.906D-03-0.186D-03 0.380D-02
 Coeff:      0.310D-01 0.360D+00 0.606D+00
 Gap=     0.204 Goal=   None    Shift=    0.000
 RMSDP=8.67D-08 MaxDP=6.08D-06 DE=-5.14D-09 OVMax= 8.14D-06

 Cycle  10  Pass 1  IDiag  1:
 RMSU=  3.44D-08    CP:  9.87D-01  1.03D+00  4.04D-01  7.60D-01  5.33D-01
                    CP:  7.51D-01  5.80D-01  7.51D-01  6.19D-01
 E= -1456.41365150338     Delta-E=       -0.000000001634 Rises=F Damp=F
 DIIS: error= 4.28D-07 at cycle  10 NSaved=  10.
 NSaved=10 IEnMin=10 EnMin= -1456.41365150338     IErMin=10 ErrMin= 4.28D-07
 ErrMax= 4.28D-07  0.00D+00 EMaxC= 1.00D-01 BMatC= 9.33D-11 BMatP= 2.24D-09
 IDIUse=1 WtCom= 1.00D+00 WtEn= 0.00D+00
 Coeff-Com:  0.302D-06-0.110D-03-0.279D-04-0.890D-03-0.127D-02-0.409D-02
 Coeff-Com:  0.481D-02 0.135D+00 0.289D+00 0.578D+00
 Coeff:      0.302D-06-0.110D-03-0.279D-04-0.890D-03-0.127D-02-0.409D-02
 Coeff:      0.481D-02 0.135D+00 0.289D+00 0.578D+00
 Gap=     0.204 Goal=   None    Shift=    0.000
 RMSDP=2.06D-08 MaxDP=1.64D-06 DE=-1.63D-09 OVMax= 1.62D-06

 Cycle  11  Pass 1  IDiag  1:
 RMSU=  9.18D-09    CP:  9.87D-01  1.03D+00  4.04D-01  7.60D-01  5.33D-01
                    CP:  7.51D-01  5.79D-01  7.67D-01  6.59D-01  5.60D-01
 E= -1456.41365150342     Delta-E=       -0.000000000040 Rises=F Damp=F
 DIIS: error= 1.13D-07 at cycle  11 NSaved=  11.
 NSaved=11 IEnMin=11 EnMin= -1456.41365150342     IErMin=11 ErrMin= 1.13D-07
 ErrMax= 1.13D-07  0.00D+00 EMaxC= 1.00D-01 BMatC= 3.99D-12 BMatP= 9.33D-11
 IDIUse=1 WtCom= 1.00D+00 WtEn= 0.00D+00
 Coeff-Com:  0.121D-06-0.373D-04-0.109D-04-0.305D-03-0.472D-03-0.170D-02
 Coeff-Com:  0.527D-03 0.367D-01 0.908D-01 0.254D+00 0.620D+00
 Coeff:      0.121D-06-0.373D-04-0.109D-04-0.305D-03-0.472D-03-0.170D-02
 Coeff:      0.527D-03 0.367D-01 0.908D-01 0.254D+00 0.620D+00
 Gap=     0.204 Goal=   None    Shift=    0.000
 RMSDP=5.49D-09 MaxDP=5.31D-07 DE=-4.05D-11 OVMax= 5.08D-07

 SCF Done:  E(RB3LYP) =  -1456.41365150     A.U. after   11 cycles
            NFock= 11  Conv=0.55D-08     -V/T= 2.0029
 KE= 1.452165427599D+03 PE=-6.864361795414D+03 EE= 2.238989154454D+03
 Leave Link  502 at Thu Jun 29 13:56:54 2017, MaxMem=  4718592000 cpu:      1094.4
 (Enter /apps/gaussian/g09_d01/g09/l601.exe)
 Copying SCF densities to generalized density rwf, IOpCl= 0 IROHF=0.

 **********************************************************************

            Population analysis using the SCF density.

 **********************************************************************

 Orbital symmetries:
       Occupied  (A) (A) (A) (A) (A) (A) (A) (A) (A) (A) (A) (A)
                 (A) (A) (A) (A) (A) (A) (A) (A) (A) (A) (A) (A)
                 (A) (A) (A) (A) (A) (A) (A) (A) (A) (A) (A) (A)
                 (A) (A) (A) (A) (A) (A) (A) (A) (A) (A) (A) (A)
                 (A) (A) (A) (A) (A) (A) (A) (A) (A) (A) (A) (A)
                 (A) (A) (A) (A) (A) (A) (A) (A) (A) (A) (A) (A)
                 (A) (A) (A) (A) (A) (A)
       Virtual   (A) (A) (A) (A) (A) (A) (A) (A) (A) (A) (A) (A)
                 (A) (A) (A) (A) (A) (A) (A) (A) (A) (A) (A) (A)
                 (A) (A) (A) (A) (A) (A) (A) (A) (A) (A) (A) (A)
                 (A) (A) (A) (A) (A) (A) (A) (A) (A) (A) (A) (A)
                 (A) (A) (A) (A) (A) (A) (A) (A) (A) (A) (A) (A)
                 (A) (A) (A) (A) (A) (A) (A) (A) (A) (A) (A) (A)
                 (A) (A) (A) (A) (A) (A) (A) (A) (A) (A) (A) (A)
                 (A) (A) (A) (A) (A) (A) (A) (A) (A) (A) (A) (A)
                 (A) (A) (A) (A) (A) (A) (A) (A) (A) (A) (A) (A)
                 (A) (A) (A) (A) (A) (A) (A) (A) (A) (A) (A) (A)
                 (A) (A) (A) (A) (A) (A) (A) (A) (A) (A) (A) (A)
                 (A) (A) (A) (A) (A) (A) (A) (A) (A) (A) (A) (A)
                 (A) (A) (A) (A) (A) (A) (A) (A) (A) (A) (A) (A)
                 (A) (A) (A) (A) (A) (A) (A) (A) (A) (A) (A) (A)
                 (A) (A) (A) (A) (A) (A) (A) (A) (A) (A) (A) (A)
                 (A) (A) (A) (A) (A) (A) (A) (A) (A) (A) (A) (A)
                 (A) (A) (A) (A) (A) (A) (A) (A) (A) (A) (A) (A)
                 (A) (A) (A) (A) (A) (A) (A) (A) (A) (A) (A) (A)
                 (A) (A) (A) (A) (A) (A) (A) (A) (A) (A) (A) (A)
                 (A) (A) (A) (A) (A) (A) (A) (A) (A) (A) (A) (A)
                 (A) (A) (A) (A) (A) (A) (A) (A) (A) (A) (A) (A)
                 (A) (A) (A) (A) (A) (A) (A) (A) (A) (A) (A) (A)
                 (A) (A) (A) (A) (A) (A) (A) (A) (A) (A) (A) (A)
                 (A) (A) (A) (A) (A) (A) (A) (A) (A) (A) (A) (A)
                 (A) (A) (A) (A) (A) (A) (A) (A) (A) (A) (A) (A)
                 (A) (A) (A) (A) (A) (A) (A) (A) (A) (A) (A) (A)
                 (A) (A) (A) (A) (A) (A) (A) (A) (A) (A) (A) (A)
                 (A) (A) (A) (A) (A) (A) (A) (A) (A) (A) (A) (A)
                 (A) (A) (A) (A) (A) (A) (A) (A) (A) (A) (A) (A)
                 (A) (A) (A) (A) (A) (A) (A) (A) (A) (A) (A) (A)
                 (A) (A) (A) (A) (A) (A) (A) (A) (A) (A) (A) (A)
                 (A) (A) (A) (A) (A) (A) (A) (A) (A) (A) (A) (A)
                 (A) (A) (A) (A) (A) (A) (A) (A) (A) (A) (A) (A)
                 (A) (A) (A) (A) (A) (A) (A) (A) (A) (A) (A) (A)
                 (A) (A) (A) (A)
 The electronic state is 1-A.
 Alpha  occ. eigenvalues --  -88.84920 -77.16342 -19.15547 -19.09469 -19.08965
 Alpha  occ. eigenvalues --  -14.29574 -10.23901 -10.20401 -10.20204 -10.19833
 Alpha  occ. eigenvalues --  -10.19476 -10.18171 -10.16827 -10.15940 -10.15829
 Alpha  occ. eigenvalues --  -10.15565 -10.15404  -7.93636  -6.64845  -5.89983
 Alpha  occ. eigenvalues --   -5.89631  -5.89069  -4.81123  -4.80977  -4.80793
 Alpha  occ. eigenvalues --   -1.06415  -0.99052  -0.97553  -0.92030  -0.80061
 Alpha  occ. eigenvalues --   -0.78954  -0.77811  -0.74901  -0.73509  -0.69191
 Alpha  occ. eigenvalues --   -0.68895  -0.68217  -0.64925  -0.62149  -0.59075
 Alpha  occ. eigenvalues --   -0.55817  -0.55055  -0.51405  -0.50669  -0.49445
 Alpha  occ. eigenvalues --   -0.48562  -0.46717  -0.46570  -0.44924  -0.44011
 Alpha  occ. eigenvalues --   -0.43442  -0.43313  -0.42649  -0.42051  -0.41744
 Alpha  occ. eigenvalues --   -0.40532  -0.40041  -0.39863  -0.39598  -0.38828
 Alpha  occ. eigenvalues --   -0.38608  -0.38093  -0.37767  -0.37219  -0.36435
 Alpha  occ. eigenvalues --   -0.35656  -0.35389  -0.34799  -0.34382  -0.33611
 Alpha  occ. eigenvalues --   -0.32975  -0.32313  -0.32061  -0.30134  -0.29313
 Alpha  occ. eigenvalues --   -0.28140  -0.25583  -0.20429
 Alpha virt. eigenvalues --   -0.00027   0.02321   0.03210   0.04095   0.04274
 Alpha virt. eigenvalues --    0.05818   0.06275   0.06477   0.06799   0.07527
 Alpha virt. eigenvalues --    0.08144   0.08245   0.08473   0.08880   0.09635
 Alpha virt. eigenvalues --    0.10512   0.11079   0.11338   0.11704   0.12461
 Alpha virt. eigenvalues --    0.13301   0.13483   0.13670   0.14653   0.14767
 Alpha virt. eigenvalues --    0.15206   0.15686   0.15959   0.16120   0.16316
 Alpha virt. eigenvalues --    0.16812   0.17340   0.17597   0.18846   0.19272
 Alpha virt. eigenvalues --    0.19961   0.20773   0.20946   0.22101   0.22798
 Alpha virt. eigenvalues --    0.23852   0.24384   0.24670   0.25204   0.25804
 Alpha virt. eigenvalues --    0.26361   0.27382   0.28530   0.28996   0.29697
 Alpha virt. eigenvalues --    0.30272   0.30933   0.31420   0.31917   0.32391
 Alpha virt. eigenvalues --    0.33683   0.34413   0.34966   0.36270   0.36752
 Alpha virt. eigenvalues --    0.37382   0.39026   0.39871   0.40685   0.40959
 Alpha virt. eigenvalues --    0.42533   0.42999   0.43439   0.44753   0.45299
 Alpha virt. eigenvalues --    0.45853   0.47173   0.48201   0.49678   0.50252
 Alpha virt. eigenvalues --    0.51058   0.51526   0.51961   0.53426   0.53847
 Alpha virt. eigenvalues --    0.54227   0.54562   0.55691   0.55839   0.56424
 Alpha virt. eigenvalues --    0.56594   0.57357   0.57435   0.58226   0.58586
 Alpha virt. eigenvalues --    0.58863   0.59521   0.59824   0.60268   0.60566
 Alpha virt. eigenvalues --    0.61235   0.61416   0.61520   0.62317   0.62841
 Alpha virt. eigenvalues --    0.63172   0.63839   0.64166   0.64905   0.65499
 Alpha virt. eigenvalues --    0.65539   0.66239   0.67496   0.67965   0.68414
 Alpha virt. eigenvalues --    0.69484   0.70629   0.71147   0.72407   0.76226
 Alpha virt. eigenvalues --    0.77018   0.78289   0.78902   0.79756   0.81434
 Alpha virt. eigenvalues --    0.83396   0.84442   0.85517   0.86070   0.87146
 Alpha virt. eigenvalues --    0.87776   0.89131   0.90738   0.92124   0.92882
 Alpha virt. eigenvalues --    0.93742   0.94984   0.95172   0.96881   0.97192
 Alpha virt. eigenvalues --    0.98336   1.00353   1.00972   1.01841   1.03391
 Alpha virt. eigenvalues --    1.04335   1.05758   1.07923   1.10154   1.10570
 Alpha virt. eigenvalues --    1.11927   1.12870   1.13377   1.16188   1.17565
 Alpha virt. eigenvalues --    1.18750   1.19433   1.20382   1.22349   1.22421
 Alpha virt. eigenvalues --    1.24471   1.26169   1.26716   1.27324   1.27700
 Alpha virt. eigenvalues --    1.28027   1.33469   1.35199   1.35915   1.37254
 Alpha virt. eigenvalues --    1.37674   1.40588   1.41861   1.42712   1.43951
 Alpha virt. eigenvalues --    1.44113   1.44301   1.45278   1.45710   1.46097
 Alpha virt. eigenvalues --    1.46713   1.47373   1.48042   1.48588   1.49359
 Alpha virt. eigenvalues --    1.49480   1.49995   1.50364   1.51054   1.51482
 Alpha virt. eigenvalues --    1.51655   1.52484   1.53193   1.53879   1.55513
 Alpha virt. eigenvalues --    1.55889   1.56419   1.56916   1.57530   1.57772
 Alpha virt. eigenvalues --    1.58858   1.59684   1.60300   1.60905   1.61183
 Alpha virt. eigenvalues --    1.62591   1.63304   1.63655   1.64693   1.65739
 Alpha virt. eigenvalues --    1.66314   1.67181   1.67540   1.68694   1.69323
 Alpha virt. eigenvalues --    1.70095   1.71586   1.72104   1.72858   1.73543
 Alpha virt. eigenvalues --    1.74126   1.74580   1.75393   1.75934   1.77160
 Alpha virt. eigenvalues --    1.77717   1.79277   1.80361   1.80640   1.81431
 Alpha virt. eigenvalues --    1.82471   1.82827   1.83527   1.84293   1.85806
 Alpha virt. eigenvalues --    1.86602   1.88085   1.89090   1.90523   1.93563
 Alpha virt. eigenvalues --    1.94899   1.96070   1.97815   1.98038   1.99839
 Alpha virt. eigenvalues --    2.00855   2.01273   2.01854   2.02438   2.03273
 Alpha virt. eigenvalues --    2.06545   2.07225   2.09428   2.10577   2.11070
 Alpha virt. eigenvalues --    2.11336   2.12314   2.14675   2.15940   2.16375
 Alpha virt. eigenvalues --    2.17505   2.20914   2.21909   2.22610   2.23355
 Alpha virt. eigenvalues --    2.24268   2.27043   2.27977   2.29430   2.30785
 Alpha virt. eigenvalues --    2.31224   2.33711   2.35014   2.35222   2.35923
 Alpha virt. eigenvalues --    2.36913   2.37823   2.38492   2.39497   2.40052
 Alpha virt. eigenvalues --    2.41269   2.42784   2.43810   2.44745   2.45215
 Alpha virt. eigenvalues --    2.47064   2.47569   2.48276   2.48574   2.49426
 Alpha virt. eigenvalues --    2.49703   2.50116   2.50271   2.50853   2.51233
 Alpha virt. eigenvalues --    2.51866   2.52939   2.53469   2.53631   2.55819
 Alpha virt. eigenvalues --    2.56234   2.56426   2.57069   2.58326   2.58787
 Alpha virt. eigenvalues --    2.59241   2.60411   2.61139   2.61902   2.63130
 Alpha virt. eigenvalues --    2.64968   2.65507   2.67393   2.68286   2.69109
 Alpha virt. eigenvalues --    2.70879   2.72737   2.73515   2.75648   2.76634
 Alpha virt. eigenvalues --    2.77851   2.81239   2.82407   2.83783   2.84404
 Alpha virt. eigenvalues --    2.85521   2.86654   2.87643   2.88378   2.89618
 Alpha virt. eigenvalues --    2.90786   2.92791   2.94000   2.95510   2.96338
 Alpha virt. eigenvalues --    2.96793   2.99575   3.00780   3.04876   3.08190
 Alpha virt. eigenvalues --    3.08412   3.11124   3.13235   3.16332   3.17541
 Alpha virt. eigenvalues --    3.19691   3.21449   3.25758   3.33113   3.33404
 Alpha virt. eigenvalues --    3.34539   3.37846   3.52599   3.58273   3.63424
 Alpha virt. eigenvalues --    3.67347   3.71708   3.71992   3.73815   3.75314
 Alpha virt. eigenvalues --    3.77488   3.78301   3.78487   3.78799   3.79044
 Alpha virt. eigenvalues --    3.79393   3.80363   3.80554   3.81886   3.82495
 Alpha virt. eigenvalues --    3.83652   3.87632   3.88586   3.96467   4.00757
 Alpha virt. eigenvalues --    4.07628   4.09831   4.19043   4.21716   4.26764
 Alpha virt. eigenvalues --    4.30924   4.89053   4.91376   4.92448   4.93119
 Alpha virt. eigenvalues --    4.94640   5.01069   5.05185   5.15453   5.26935
 Alpha virt. eigenvalues --    5.43767   5.63906   7.05589   7.79684  13.90718
 Alpha virt. eigenvalues --   13.94298  14.02203  17.28219  17.39545  17.42363
 Alpha virt. eigenvalues --   23.74075  23.78460  23.81995  23.82762  23.87629
 Alpha virt. eigenvalues --   23.88765  23.91730  23.93052  23.93488  23.94244
 Alpha virt. eigenvalues --   23.95363  35.53436  49.82329  49.86035  49.89717
 Alpha virt. eigenvalues --  163.12007 188.94814
          Condensed to atoms (all electrons):
               1          2          3          4          5          6
     1  P   12.983300   0.290237   0.292630  -0.015089  -0.060757   0.495385
     2  S    0.290237  15.940249  -0.027355   0.216192  -0.018219  -0.048664
     3  O    0.292630  -0.027355   8.207336   0.000818   0.216502  -0.026571
     4  C   -0.015089   0.216192   0.000818   5.321886   0.000218   0.008412
     5  C   -0.060757  -0.018219   0.216502   0.000218   4.799913   0.005515
     6  O    0.495385  -0.048664  -0.026571   0.008412   0.005515   8.201725
     7  C    0.212265  -0.074588  -0.048767  -0.000325   0.004101  -0.038693
     8  H   -0.041193  -0.008203   0.001359  -0.000378  -0.000125  -0.003870
     9  H   -0.020322  -0.008213  -0.000316  -0.000046  -0.000151   0.001158
    10  H   -0.020777   0.002937  -0.000092  -0.000036  -0.000068  -0.004334
    11  H   -0.001224  -0.002044  -0.025528   0.000009   0.405536  -0.000014
    12  H   -0.020788   0.003414  -0.033573  -0.001075   0.402302  -0.001705
    13  C   -0.012551   0.002161  -0.043604   0.000014   0.360242  -0.005421
    14  H    0.001707  -0.000015   0.004352  -0.000004  -0.031334   0.000011
    15  H   -0.004318  -0.001064  -0.003650  -0.000011  -0.024433   0.009017
    16  H    0.000258  -0.000060   0.002653   0.000001  -0.032981  -0.000335
    17  C   -0.012781  -0.063710   0.000003   0.294054  -0.000101  -0.008763
    18  H   -0.004776  -0.052337  -0.000057   0.321363   0.000003   0.002035
    19  H    0.001497  -0.039866  -0.000024   0.407278  -0.000043   0.000109
    20  H   -0.001979  -0.000138   0.000031  -0.063232   0.000095   0.000043
    21  N    0.000522   0.010592   0.000000  -0.047286   0.000000  -0.000034
    22  H   -0.004296  -0.016262  -0.000523  -0.046715   0.000689   0.009541
    23  C    0.000200  -0.000044   0.000000   0.003126  -0.000001   0.000143
    24  C   -0.000029  -0.000411   0.000000   0.001664   0.000000  -0.000002
    25  C    0.000000   0.000133   0.000000  -0.000092   0.000000   0.000000
    26  C   -0.000003  -0.000174   0.000000  -0.004561   0.000000   0.000000
    27  H    0.000003   0.000045   0.000000  -0.000517   0.000000   0.000000
    28  H    0.000008   0.000086   0.000000  -0.000479   0.000000  -0.000003
    29  C   -0.000818  -0.000313   0.000000   0.000175   0.000000  -0.003102
    30  C   -0.000150   0.000140   0.000000  -0.000051   0.000001  -0.000086
    31  H   -0.000001  -0.000012   0.000000  -0.000018   0.000000   0.000000
    32  H    0.000039   0.000390   0.000000   0.000060  -0.000001   0.000000
    33  H    0.000000  -0.000032   0.000000   0.000046   0.000000   0.000000
    34  H    0.000007   0.000545   0.000000  -0.001248   0.000000   0.000000
    35  H    0.000001   0.000028   0.000000   0.000287   0.000000   0.000000
    36  H   -0.000015   0.000325   0.000000  -0.003970   0.000000   0.000000
    37  H    0.000019   0.000015   0.000000   0.000173   0.000000  -0.000013
    38  H    0.000057   0.000331   0.000000  -0.000804   0.000000  -0.000077
    39  H   -0.000089   0.000262   0.000006  -0.003498   0.000000   0.011363
    40  H   -0.000004  -0.000023   0.000000   0.000033   0.000000  -0.000003
    41  H    0.000558   0.000525   0.000001   0.000024  -0.000032   0.000202
    42  H   -0.000006  -0.000015   0.000000  -0.000010   0.000000  -0.000003
    43  O    0.007820  -0.001159  -0.000004  -0.014081   0.000001  -0.014245
    44  H   -0.018697  -0.001759  -0.000100   0.004984  -0.000032   0.029982
    45  H   -0.000071   0.000221   0.000003   0.001361  -0.000001   0.001010
               7          8          9         10         11         12
     1  P    0.212265  -0.041193  -0.020322  -0.020777  -0.001224  -0.020788
     2  S   -0.074588  -0.008203  -0.008213   0.002937  -0.002044   0.003414
     3  O   -0.048767   0.001359  -0.000316  -0.000092  -0.025528  -0.033573
     4  C   -0.000325  -0.000378  -0.000046  -0.000036   0.000009  -0.001075
     5  C    0.004101  -0.000125  -0.000151  -0.000068   0.405536   0.402302
     6  O   -0.038693  -0.003870   0.001158  -0.004334  -0.000014  -0.001705
     7  C    5.330065   0.396988   0.385740   0.387623  -0.000176  -0.000729
[...]
 0.00000369,-0.00000069,-0.00000669,-0.00001072,-0.00001350,0.00000915,
 -0.00001708,0.00000818,0.00002039,-0.00002801,0.00007341,-0.00001019,0
 .00002328,-0.00002468,0.00003699,-0.00000761,0.00001130,-0.00000614,0.
 00000370,-0.00002247,-0.00024577,0.00006900,-0.00001388,0.00001420,0.0
 0005377,-0.00000793,-0.00000577,-0.00002447,0.00000328,0.00003316,-0.0
 0019523,-0.00016020,0.00031160,-0.00054121,-0.00015025,0.00007548,0.00
 003215,0.00025380,0.00302726,0.00103721,-0.00503394,-0.00018758,-0.000
 37045,0.00021868,-0.00095379,0.00068215,0.00076287,0.00001056,-0.00000
 553,-0.00008586,-0.00003971,0.00004595,-0.00007979,0.00063201,-0.00065
 537,0.00003408,0.00071157,0.00050547,-0.00032409,-0.15755067,-0.035244
 44,0.12602983,-0.00033737,0.00138830,0.00133975,-0.00000608,-0.0003559
 7,-0.00020287,-0.00007185,0.00038771,0.00006956,0.00001204,0.00004004,
 -0.00001484,0.00001672,-0.00003620,-0.00001389,-0.00000938,-0.00002392
 ,0.00000378,-0.00013763,0.00013531,0.00008083,0.00043333,0.00021913,0.
 00001804,0.00041749,0.00028032,-0.00019711,0.00360730,0.00210083,-0.00
 480769,-0.01818882,-0.00570748,0.02322481,0.16851616,-0.00002330,0.000
 10580,0.00022040,0.00009604,-0.00001048,-0.00004159,0.00000685,-0.0000
 0095,-0.00007120,-0.00008018,-0.00001290,-0.00000244,-0.00002870,-0.00
 000821,0.00002980,-0.00007776,-0.00000751,-0.00019250,0.00000759,-0.00
 002891,-0.00002385,0.00001615,0.00001174,0.00001045,-0.00000803,-0.000
 00161,-0.00000279,0.00000869,0.00000434,-0.00000353,0.00000335,0.00000
 359,-0.00000250,0.00000279,-0.00000271,-0.00000311,0.00000268,0.000009
 33,-0.00001616,0.00000085,0.00000228,0.00000420,-0.00000931,-0.0000050
 0,-0.00000138,0.00000317,-0.00000388,0.00000178,-0.00036064,-0.0003097
 4,-0.00016465,0.00004601,0.00006241,0.00003486,-0.00001015,-0.00001844
 ,-0.00000227,-0.00008340,-0.00013322,-0.00010280,0.00036930,0.00359737
 ,-0.00104459,0.00006026,-0.00006944,0.00014709,-0.02151921,-0.00507377
 ,0.02369974,-0.00017516,-0.00069728,0.00035998,-0.00017054,-0.00125107
 ,-0.00047518,0.00010610,0.00004882,-0.00018383,-0.00000357,-0.00002606
 ,-0.00002019,0.00034905,0.00121331,-0.00061119,0.00194668,-0.00610615,
 0.00131173,-0.03441945,-0.05723730,0.03889651,0.00127885,-0.00059824,-
 0.00101779,0.00005477,0.00010304,0.00002332,0.00007452,0.00040383,0.00
 003414,0.00002630,0.00012118,-0.00002619,0.00000671,-0.00004004,0.0000
 0873,-0.00000028,0.00000610,0.00002808,0.00022329,0.00027733,0.0001814
 1,-0.00121255,-0.00051309,0.00177827,0.00017352,0.00000011,-0.00025739
 ,0.01487359,0.00464335,-0.01492077,0.00202559,-0.00021016,-0.00337635,
 0.03633571,0.06174388,-0.00010813,-0.00000574,-0.00014984,0.00001860,0
 .00000004,0.00003231,0.00003932,-0.00005674,0.00008900,-0.00002557,-0.
 00001582,-0.00006171,0.00001328,0.00004828,-0.00003324,0.00009627,-0.0
 0001014,0.00014697,0.00001573,0.00001104,0.00001345,-0.00001544,-0.000
 01182,-0.00000527,0.00000404,0.00000178,0.00000236,-0.00000214,-0.0000
 0111,-0.00000219,0.00000198,-0.00000575,0.00000473,-0.00000368,-0.0000
 0074,-0.00000165,-0.00000402,-0.00000486,0.00000479,-0.00000026,-0.000
 00530,0.00000703,0.00001564,0.00000597,-0.00000547,-0.00000304,-0.0000
 0003,-0.00000620,-0.00005236,0.00019363,-0.00007089,-0.00002413,-0.000
 02392,-0.00001273,0.00001874,0.00000527,0.00000661,0.00005646,0.000001
 55,0.00006397,-0.00072480,-0.00034759,0.00142903,-0.00002277,0.0000393
 6,0.00000219,0.00663924,-0.00034896,-0.00902412,0.00033945,0.00032593,
 0.00020456,0.00103640,-0.00042113,-0.00078118,-0.00009657,0.00002445,0
 .00001927,-0.00001999,0.00004401,-0.00006813,-0.00026943,-0.00011236,-
 0.00009803,-0.00124892,0.00279088,0.00000516,0.12598571,0.04128114,-0.
 19181039,0.00088309,-0.00173282,-0.00066652,-0.00007538,-0.00001959,-0
 .00009851,-0.00003282,-0.00032061,-0.00012283,-0.00000650,-0.00003847,
 0.00001876,-0.00001220,0.00004851,0.00001311,0.00000170,-0.00001360,-0
 .00001624,-0.00020697,-0.00005025,0.00055434,0.00080166,0.00046319,-0.
 00036878,0.00007875,-0.00006652,0.00002680,0.01518335,0.00530768,-0.01
 696051,-0.00739689,-0.00279923,0.00945168,-0.14082150,-0.04416942,0.20
 824650,-0.00228268,0.00139408,0.00535575,0.00116542,-0.00086081,-0.000
 51789,0.00054890,0.00032190,-0.00122981,-0.00110925,-0.00031931,-0.000
 97460,-0.00030350,-0.00027602,0.00037666,0.00302001,0.00253440,-0.0062
 2861,-0.00042934,-0.00145412,-0.00108134,-0.00040717,0.00125323,-0.000
 43933,-0.00030552,0.00038244,-0.00065197,0.00030936,0.00015184,-0.0000
 5562,0.00002248,0.00005031,-0.00005327,0.00006828,0.00004472,-0.000050
 74,0.00006977,0.00008651,-0.00004721,-0.00000976,0.00005748,-0.0000551
 0,-0.00009983,-0.00008698,0.00003841,0.00003128,-0.00003949,0.00001991
 ,0.00015599,0.00044358,0.00078508,-0.00060871,0.00031120,-0.00045012,0
 .00011981,0.00019226,0.00065110,-0.00026464,-0.00032690,0.00024764,-0.
 00001932,-0.00002062,0.00040108,-0.00012722,-0.00013543,-0.00008623,0.
 00035664,-0.00033207,-0.00113554,0.00039988,-0.00007029,-0.00015123,-0
 .00008437,-0.00000695,0.00006986,-0.00005073,0.00004637,0.00000964,0.0
 0000944,-0.00000894,-0.00000280,-0.00017068,-0.00007848,0.00014962,-0.
 00051043,0.00010626,0.00056380,-0.00034989,0.00009059,0.00026672,0.000
 01792,-0.00000636,-0.00002988,0.00002465,0.00000667,-0.00001226,-0.000
 05733,0.00000724,0.00004903,0.00004670,-0.00006383,0.00000440,-0.00006
 982,0.00001216,0.00003696,0.00002985,-0.00001395,-0.00002284,-0.000475
 59,-0.00047421,0.00005847,0.00088295,-0.00079456,0.00054947,-0.0009569
 5,0.00088680,-0.00054967,-0.00000014,0.00002508,-0.00004521,0.00005186
 ,0.00002483,-0.00000907,-0.00000719,-0.00016699,0.00012195,0.40552128,
 -0.00327036,-0.00788177,-0.00541076,-0.00035385,0.00146887,0.00078202,
 0.00101393,0.00069363,0.00173554,0.00062833,0.00081601,0.00035690,0.00
 018041,0.00039080,-0.00058045,0.00487037,0.00042439,0.01299613,0.00060
 270,0.00102065,0.00078372,-0.00015231,-0.00070042,-0.00014518,0.000303
 64,0.00010237,0.00002104,-0.00023442,-0.00000497,-0.00005680,-0.000003
 90,-0.00004035,0.00008378,-0.00006548,-0.00005499,0.00000504,-0.000140
 47,-0.00008813,-0.00005515,0.00001264,-0.00005228,0.00008202,0.0000968
 5,0.00012872,-0.00001659,0.00001373,0.00002191,-0.00000492,-0.00018420
 ,-0.00037081,-0.00062411,-0.00027100,-0.00158632,0.00031234,-0.0002297
 6,-0.00003865,0.00012145,0.00014473,0.00025332,-0.00002261,-0.00009538
 ,0.00034162,0.00017982,0.00010474,0.00020473,-0.00011232,-0.00025774,-
 0.00019876,-0.00095091,0.00013731,-0.00009657,-0.00004381,-0.00003592,
 0.00002554,0.00002209,-0.00004280,-0.00004577,0.00011039,0.00000489,-0
 .00001659,0.00000970,-0.00019678,-0.00003810,0.00020694,0.00032247,-0.
 00097611,0.00140661,0.00001340,0.00009132,0.00009622,0.00003137,0.0000
 3866,-0.00001877,0.00000540,-0.00000666,-0.00000286,-0.00002316,0.0000
 0467,0.00002601,-0.00001148,0.00002855,-0.00003915,-0.00000114,0.00003
 267,0.00000502,0.00000571,0.00001183,0.00000149,-0.00004257,0.00007587
 ,-0.00001852,-0.00010494,-0.00003667,-0.00001527,-0.00054243,0.0003750
 9,-0.00070456,0.00002740,0.00004842,0.00000250,0.00000662,0.00001193,-
 0.00007940,-0.00003737,-0.00004268,0.00004347,0.03489747,0.41012203,0.
 00519892,0.00256644,0.00532252,0.00044852,0.00004205,-0.00019649,-0.00
 144101,0.00069297,-0.00222996,0.00094032,0.00021577,-0.00003245,-0.000
 24703,-0.00093001,0.00086693,-0.00494781,0.00658814,-0.01082714,-0.001
 41102,-0.00089211,-0.00035549,0.00010551,0.00076441,-0.00108420,-0.000
 37444,0.00021766,-0.00025110,-0.00029072,0.00013699,-0.00030320,-0.000
 01480,0.00010576,-0.00011002,0.00003780,0.00004218,0.00004416,0.000147
 01,0.00019392,-0.00002227,-0.00000572,0.00011308,-0.00008425,-0.000071
 62,-0.00023593,-0.00003813,-0.00008004,0.00000447,-0.00000026,-0.00103
 441,-0.00077711,-0.00116057,-0.00093257,0.00001797,-0.00114605,0.00025
 160,-0.00014810,-0.00090940,0.00036883,0.00043862,-0.00010673,0.000736
 04,0.00029668,0.00064590,-0.00008031,-0.00008043,0.00006888,0.00025869
 ,-0.00056514,-0.00075747,-0.00031980,0.00019792,0.00029225,0.00002946,
 -0.00002863,-0.00013569,-0.00000432,-0.00003375,-0.00011910,0.00015760
 ,0.00001552,0.00002895,0.00008819,0.00006569,0.00007459,-0.00060054,0.
 00054627,0.00049399,-0.00021034,0.00015348,0.00013910,0.00001097,0.000
 03802,0.00001872,0.00000321,-0.00001494,0.00009113,0.00006936,-0.00000
 103,-0.00002738,-0.00008050,0.00004786,-0.00004037,0.00011854,0.000023
 71,-0.00001719,-0.00001153,0.00002211,0.00016172,0.00048769,0.00040895
 ,0.00009962,0.00006602,-0.00015765,-0.00031237,0.00018678,-0.00048279,
 -0.00045946,0.00006370,0.00011877,0.00006071,0.00006057,-0.00009763,-0
 .00000331,0.00000802,-0.00007286,0.00002909,0.26577649,-0.18814582,0.3
 0068937,-0.00003664,-0.00269396,-0.00813829,-0.00081249,0.00098334,0.0
 0068796,-0.00016827,-0.00017480,0.00094800,0.00070340,-0.00009361,0.00
 099558,0.00023932,0.00030571,-0.00040791,-0.00438725,-0.00039974,0.005
 30912,-0.00002291,0.00099760,0.00061465,-0.00014441,-0.00127255,0.0000
 3740,0.00024322,-0.00003721,0.00031909,-0.00049922,-0.00006784,-0.0001
 1070,-0.00000882,-0.00003935,0.00005649,-0.00005461,-0.00003317,0.0000
 2587,-0.00006815,-0.00008867,0.00005235,0.00000855,-0.00006169,0.00006
 501,0.00009305,0.00011085,-0.00002984,-0.00001517,0.00002464,-0.000019
 04,0.00004039,-0.00009994,-0.00013738,-0.00081671,0.00091846,0.0009996
 6,-0.00003673,-0.00011873,-0.00046905,0.00012031,0.00008223,-0.0001601
 1,-0.00010869,-0.00008064,-0.00046558,0.00007171,0.00004822,0.00014065
 ,0.00010052,0.00014437,0.00118814,-0.00025881,0.00003172,0.00006120,0.
 00006663,0.00000138,-0.00003155,0.00005490,-0.00001212,-0.00002347,-0.
 00003442,0.00001359,-0.00000826,0.00021611,0.00004490,-0.00026039,-0.0
 0063141,0.00070267,-0.00106356,0.00019297,-0.00009879,-0.00018319,-0.0
 0001887,-0.00000988,0.00002314,-0.00001853,-0.00000182,-0.00000667,0.0
 0003460,-0.00000386,-0.00003632,-0.00001386,0.00002401,0.00000836,0.00
 002963,-0.00002185,-0.00002269,-0.00001901,-0.00000037,-0.00000769,0.0
 0041745,0.00018205,0.00007074,-0.00046877,0.00011826,-0.00015468,-0.00
 038893,-0.00183134,0.00096634,-0.00001201,-0.00004382,0.00002090,-0.00
 005347,-0.00001803,0.00003848,0.00002220,0.00011983,-0.00010062,-0.038
 42308,-0.01222050,-0.01606686,0.05095443,0.00385948,0.01075101,0.00400
 699,0.00033731,-0.00185098,-0.00100092,-0.00138407,-0.00103723,-0.0019
 0006,-0.00070177,0.00004901,-0.00073558,-0.00021244,-0.00048474,0.0006
 1163,-0.00301443,-0.00801470,-0.00724304,-0.00052157,-0.00036730,-0.00
 069761,-0.00103703,-0.00080615,-0.00028951,-0.00013403,-0.00042900,0.0
 0039105,0.00021872,-0.00000205,0.00001238,0.00001354,0.00004931,-0.000
 08660,0.00007066,0.00005495,0.00000612,0.00013972,0.00005805,0.0000471
 9,-0.00001432,0.00005796,-0.00007811,-0.00008540,-0.00010670,0.0000297
 8,-0.00000969,-0.00001918,0.00001031,0.00003885,0.00042211,0.00050340,
 0.00137469,-0.00010286,-0.00116233,0.00005583,0.00006670,0.00034323,-0
 .00013246,-0.00025130,0.00006621,0.00007053,-0.00018332,0.00001204,-0.
 00010056,-0.00018479,0.00007009,0.00033942,-0.00010456,0.00013599,0.00
 000901,0.00001974,0.00001311,-0.00000303,-0.00000866,0.00000349,0.0000
 0351,0.00002225,-0.00003419,0.00000481,0.00000470,-0.00000431,0.000078
 12,-0.00001529,-0.00010267,-0.00085897,0.00029002,-0.00033829,-0.00017
 616,-0.00001953,0.00002337,-0.00001362,-0.00001800,0.00000236,0.000000
 73,0.00000549,0.00000052,0.00000234,-0.00000483,-0.00000394,0.00001042
 ,-0.00002442,0.00001673,-0.00001110,-0.00001236,0.00000050,0.00000341,
 -0.00000798,-0.00000698,-0.00005531,-0.00012733,0.00001973,0.00064097,
 -0.00037007,0.00021403,-0.00129638,0.00011037,0.00019175,-0.00001378,-
 0.00001107,-0.00000801,0.00002112,-0.00001112,0.00006620,0.00004378,-0
 .00003916,0.00001599,0.02866556,-0.36326401,0.20648335,-0.02048123,0.3
 6202623,-0.01023238,-0.00892861,-0.01441323,-0.00062782,0.00126211,0.0
 0077910,0.00221307,0.00018298,0.00344569,0.00079243,0.00029951,0.00005
 312,0.00041343,0.00111136,-0.00114593,0.00478054,0.00075650,0.00712336
 ,0.00073166,0.00095036,0.00087799,-0.00000049,-0.00018314,0.00089276,0
 .00060394,0.00026011,-0.00034798,0.00014692,-0.00003242,0.00023495,-0.
 00001139,-0.00012475,0.00015191,-0.00007785,-0.00007988,-0.00004406,-0
 .00022668,-0.00027031,0.00003362,0.00003245,-0.00014399,0.00013522,0.0
 0011843,0.00032701,0.00005022,0.00008219,0.00000813,0.00000919,0.00075
 228,0.00007964,0.00004284,0.00069872,-0.00142853,0.00020433,-0.0002569
 1,0.00004818,0.00041049,-0.00006931,0.00002513,-0.00003538,-0.00057342
 ,-0.00013806,-0.00058432,0.00023776,0.00029704,-0.00014137,-0.00018250
 ,0.00043075,0.00099318,0.00006267,-0.00013466,-0.00019639,0.00000929,0
 .00002676,0.00007470,0.00001768,0.00000093,0.00009310,-0.00012547,-0.0
 0000460,-0.00001721,0.00001408,-0.00001387,-0.00013021,0.00080245,-0.0
 0018402,-0.00093684,0.00029957,-0.00013835,-0.00016646,-0.00001069,-0.
 00002176,-0.00000364,-0.00000833,0.00000683,-0.00005851,-0.00003112,-0
 .00000100,0.00000485,0.00003305,-0.00000601,0.00001812,-0.00005659,-0.
 00001625,-0.00000223,-0.00000421,-0.00001088,-0.00009984,-0.00033045,-
 0.00009195,-0.00014979,-0.00049817,0.00035986,-0.00004527,0.00083715,0
 .00018299,0.00115693,-0.00006365,-0.00009976,-0.00003751,-0.00006622,0
 .00008893,-0.00000387,-0.00001438,0.00010461,-0.00007244,-0.03544106,0
 .17561272,-0.12680034,0.03689995,-0.19314933,0.14117248,-0.00040422,-0
 .00049364,-0.00055735,-0.00019878,0.00009162,-0.00003916,0.00006529,0.
 00013663,0.00012487,-0.00004145,0.00007384,0.00022365,0.00002963,0.000
 00673,-0.00004886,0.00023493,-0.00038401,0.00104225,0.00016837,-0.0003
 0820,0.00009728,-0.00013273,0.00030400,0.00006287,0.00000731,0.0000996
 8,-0.00010340,0.00000002,0.00001851,0.00000234,-0.00000277,0.00000127,
 0.00000107,-0.00000483,0.00000451,0.00000361,-0.00000873,-0.00000442,0
 .00000241,0.00000480,-0.00000521,0.00001391,0.00002478,0.00001189,-0.0
 0001270,-0.00001358,0.00000555,-0.00000618,0.00016922,0.00001628,0.000
 09446,0.00058973,-0.00008102,0.00022483,-0.00003011,-0.00001381,0.0000
 0481,-0.00001218,-0.00001326,-0.00005480,-0.00000380,0.00000462,-0.000
 30561,0.00002252,0.00001727,0.00001550,-0.00057525,0.00054658,0.000350
 91,-0.00017387,0.00001749,0.00006332,0.00003932,0.00000165,-0.00001635
 ,0.00002241,-0.00002126,0.00000838,-0.00001828,-0.00000012,-0.00000027
 ,0.00000367,-0.00002163,0.00002413,0.00055512,-0.00156337,0.00049823,0
 .00027282,-0.00006013,-0.00026403,-0.00001409,-0.00000286,0.00001190,-
 0.00001180,0.00000130,-0.00000749,0.00002128,-0.00000412,-0.00002443,-
 0.00000616,0.00002642,0.00001079,0.00001642,-0.00001249,-0.00001821,-0
 .00001070,0.00000393,-0.00001718,0.00009281,0.00021858,-0.00006836,-0.
 00099194,0.00045842,0.00001357,-0.00014457,-0.00015753,-0.00004475,0.0
 0000086,-0.00002473,0.00002450,-0.00002979,-0.00000186,-0.00001453,-0.
 00000152,0.00013099,-0.00007720,-0.36572933,-0.02490617,-0.24739445,-0
 .00608812,-0.00574515,-0.00167061,0.37230731,-0.00084074,-0.00075446,0
 .00027941,0.00009798,-0.00006171,-0.00007203,0.00023883,0.00008190,-0.
 00007547,-0.00001456,-0.00012764,-0.00012417,-0.00002325,0.00000524,-0
 .00000014,-0.00011066,-0.00121560,0.00174352,-0.00019024,-0.00022886,-
 0.00007832,0.00061148,0.00022991,0.00021138,-0.00009975,0.00010034,-0.
 00013445,-0.00005215,0.00009722,-0.00010326,-0.00000154,0.00000405,-0.
 00001206,0.00000842,0.00000797,-0.00000833,0.00000840,-0.00001604,0.00
 000180,0.00000795,0.00000158,0.00000386,0.00000342,0.00001617,0.000011
 75,0.00000143,-0.00000537,0.00000295,0.00021365,0.00009227,0.00016485,
 -0.00017095,0.00027108,-0.00022599,0.00008162,-0.00001024,-0.00011782,
 -0.00004945,-0.00006994,-0.00002445,0.00003971,-0.00028686,-0.00023798
 ,0.00000599,-0.00004297,0.00005774,-0.00007943,0.00028932,0.00091913,-
 0.00016712,0.00006490,0.00000740,0.00004373,-0.00001600,-0.00001944,0.
 00004625,0.00003439,-0.00008343,-0.00001710,0.00001849,-0.00000576,0.0
 0017094,0.00001928,-0.00015651,0.00019605,0.00019052,-0.00109581,0.000
 13728,-0.00008844,-0.00015267,-0.00002507,-0.00002884,0.00001903,-0.00
 000739,0.00000273,-0.00000112,0.00002201,-0.00000267,-0.00002589,0.000
 00129,-0.00001709,0.00002412,0.00000555,-0.00002865,-0.00000776,-0.000
 00817,-0.00001266,-0.00000041,-0.00007202,-0.00015718,0.00001725,-0.00
 048273,0.00032306,0.00007030,0.00017640,-0.00056304,0.00086424,-0.0000
 2677,-0.00005097,0.,-0.00002059,0.00000626,0.00002985,0.00001907,0.000
 09022,-0.00006966,-0.06645669,-0.04119299,-0.02789478,0.03515169,0.003
 89080,0.02277966,0.03162725,0.03914049,-0.00062144,0.00057146,0.000687
 71,0.00028530,-0.00023975,0.00010478,0.00022603,-0.00024705,0.00007822
 ,-0.00008242,-0.00015693,-0.00060672,-0.00001544,0.00012027,-0.0000551
 8,0.00052303,0.00074183,-0.00091790,0.00011415,-0.00009910,0.00013377,
 -0.00007127,-0.00000276,-0.00046394,-0.00004586,0.00001793,0.00003235,
 -0.00001307,0.00004780,-0.00007983,0.00001046,-0.00001158,0.00001142,0
 .00000521,0.00000122,-0.00001767,0.00000237,-0.00000452,0.00000288,-0.
 00001141,-0.00000812,-0.00000425,-0.00002086,0.00000955,0.00000693,0.0
 0002095,-0.00000623,-0.00000139,0.00018903,0.00024210,0.00021898,-0.00
 007330,0.00014184,-0.00127441,0.00002907,0.00006378,0.00022827,-0.0001
 2002,-0.00011658,0.00011191,-0.00017948,-0.00013380,0.00013707,-0.0000
 3382,-0.00000617,-0.00005925,-0.00002715,-0.00012777,-0.00047869,0.000
 27919,-0.00008082,-0.00013221,-0.00005452,0.00000691,0.00005464,-0.000
 02746,0.00003026,0.00002645,-0.00002801,-0.00001002,-0.00000711,-0.000
 14305,-0.00004259,0.00009409,-0.00015168,0.00006559,0.00022304,-0.0001
 0904,0.00001482,0.00012255,0.00001078,-0.00000727,-0.00001805,0.000010
 83,0.00000448,-0.00002049,-0.00004134,0.00000350,0.00003431,0.00003823
 ,-0.00003625,0.00000682,-0.00005217,0.00000492,0.00002713,0.00001253,-
 0.00000694,-0.00003547,-0.00035656,-0.00052967,0.00000077,0.00085666,-
 0.00022412,0.00057756,-0.00031761,0.00095273,-0.00044004,-0.00000721,-
 0.00000935,-0.00003229,0.00000967,0.00002663,-0.00001034,-0.00000981,-
 0.00006859,0.00006515,-0.22621059,0.00204499,-0.16159725,-0.02162521,-
 0.00645609,-0.01252533,0.24782631,0.00351946,0.17579103\\-0.00000212,-
 0.00000167,-0.00000872,0.00000015,-0.00000609,-0.00000165,0.00000329,0
 .00000108,0.00000301,0.00000299,0.00000943,0.00000261,-0.00000147,-0.0
 0000264,-0.00000047,0.00000536,0.00000328,0.00000765,0.00000024,-0.000
 00665,-0.00000862,0.00000310,-0.00000312,0.00000271,-0.00000242,-0.000
 00517,0.00000543,-0.00000065,-0.00000169,0.00000285,-0.00000304,-0.000
 00078,-0.00000148,-0.00000024,-0.00000344,-0.00000013,0.00000284,-0.00
 000151,0.00000025,-0.00000305,-0.00000389,-0.00000238,-0.00000291,-0.0
 0000024,0.00000176,-0.00000343,-0.00000272,0.00000103,0.00000307,0.000
 00409,0.00000238,0.00000310,-0.00000435,0.00000643,0.00000031,-0.00000
 456,-0.00000211,-0.00000086,-0.00000103,-0.00000046,-0.00000344,-0.000
 00928,-0.00001240,-0.00000180,0.00000304,0.00000115,-0.00000176,0.0000
 1413,0.00000901,-0.00000054,0.00000358,0.00000343,-0.00000156,0.000000
 39,-0.00000083,0.00000092,-0.00000052,-0.00000027,0.00000104,0.0000022
 4,-0.00000027,0.00000053,0.00000202,-0.00000072,0.00000396,-0.00000303
 ,-0.00000446,0.00000057,-0.00000526,0.00000126,0.00000054,0.00000498,-
 0.00000058,-0.00000098,0.00000085,-0.00000132,0.00000122,0.00000234,-0
 .00000047,0.00000068,0.00000071,0.00000119,0.00000205,0.00000188,-0.00
 000030,0.00000016,0.00000089,-0.00000069,0.00000016,0.00000257,0.00000
 040,-0.00000027,-0.00000029,0.00000179,-0.00000123,0.00000098,-0.00000
 161,-0.00000225,0.00000246,-0.00000009,-0.00000409,0.00000438,-0.00000
 118,-0.00000013,0.00000004,-0.00000330,0.00000286,-0.00000784,-0.00000
 385,-0.00000413,0.00000985,0.00000175,0.00000321,0.00000054,0.00000229
 \\\@


 TO ERR IS HUMAN - AND TO BLAME IT ON A COMPUTER IS EVEN MORE SO.
 Job cpu time:       0 days  4 hours  1 minutes  6.5 seconds.
 File lengths (MBytes):  RWF=   1052 Int=      0 D2E=      0 Chk=     20 Scr=      1
 Normal termination of Gaussian 09 at Thu Jun 29 14:51:55 2017.
