 Entering Gaussian System, Link 0=g09
 Input=/work/smf115/VX_Hydrolysis/PO_Reaction/M062X/SMD/VXh13_20_P9_SMD.com
 Output=/work/smf115/VX_Hydrolysis/PO_Reaction/M062X/SMD/VXh13_20_P9_SMD.log
 Initial command:
 /apps/gaussian/g09_d01/g09/l1.exe "/tmp/pbs.529479.cx1/Gau-11938.inp" -scrdir="/tmp/pbs.529479.cx1/"
 Entering Link 1 = /apps/gaussian/g09_d01/g09/l1.exe PID=     11939.
  
 Copyright (c) 1988,1990,1992,1993,1995,1998,2003,2009,2013,
            Gaussian, Inc.  All Rights Reserved.
  
 This is part of the Gaussian(R) 09 program.  It is based on
 the Gaussian(R) 03 system (copyright 2003, Gaussian, Inc.),
 the Gaussian(R) 98 system (copyright 1998, Gaussian, Inc.),
 the Gaussian(R) 94 system (copyright 1995, Gaussian, Inc.),
 the Gaussian 92(TM) system (copyright 1992, Gaussian, Inc.),
 the Gaussian 90(TM) system (copyright 1990, Gaussian, Inc.),
 the Gaussian 88(TM) system (copyright 1988, Gaussian, Inc.),
 the Gaussian 86(TM) system (copyright 1986, Carnegie Mellon
 University), and the Gaussian 82(TM) system (copyright 1983,
 Carnegie Mellon University). Gaussian is a federally registered
 trademark of Gaussian, Inc.
  
 This software contains proprietary and confidential information,
 including trade secrets, belonging to Gaussian, Inc.
  
 This software is provided under written license and may be
 used, copied, transmitted, or stored only in accord with that
 written license.
  
 The following legend is applicable only to US Government
 contracts under FAR:
  
                    RESTRICTED RIGHTS LEGEND
  
 Use, reproduction and disclosure by the US Government is
 subject to restrictions as set forth in subparagraphs (a)
 and (c) of the Commercial Computer Software - Restricted
 Rights clause in FAR 52.227-19.
  
 Gaussian, Inc.
 340 Quinnipiac St., Bldg. 40, Wallingford CT 06492
  
  
 ---------------------------------------------------------------
 Warning -- This program may not be used in any manner that
 competes with the business of Gaussian, Inc. or will provide
 assistance to any competitor of Gaussian, Inc.  The licensee
 of this program is prohibited from giving any competitor of
 Gaussian, Inc. access to this program.  By using this program,
 the user acknowledges that Gaussian, Inc. is engaged in the
 business of creating and licensing software in the field of
 computational chemistry and represents and warrants to the
 licensee that it is not a competitor of Gaussian, Inc. and that
 it will not use this program in any manner prohibited above.
 ---------------------------------------------------------------
  

 Cite this work as:
 Gaussian 09, Revision D.01,
 M. J. Frisch, G. W. Trucks, H. B. Schlegel, G. E. Scuseria, 
 M. A. Robb, J. R. Cheeseman, G. Scalmani, V. Barone, B. Mennucci, 
 G. A. Petersson, H. Nakatsuji, M. Caricato, X. Li, H. P. Hratchian, 
 A. F. Izmaylov, J. Bloino, G. Zheng, J. L. Sonnenberg, M. Hada, 
 M. Ehara, K. Toyota, R. Fukuda, J. Hasegawa, M. Ishida, T. Nakajima, 
 Y. Honda, O. Kitao, H. Nakai, T. Vreven, J. A. Montgomery, Jr., 
 J. E. Peralta, F. Ogliaro, M. Bearpark, J. J. Heyd, E. Brothers, 
 K. N. Kudin, V. N. Staroverov, T. Keith, R. Kobayashi, J. Normand, 
 K. Raghavachari, A. Rendell, J. C. Burant, S. S. Iyengar, J. Tomasi, 
 M. Cossi, N. Rega, J. M. Millam, M. Klene, J. E. Knox, J. B. Cross, 
 V. Bakken, C. Adamo, J. Jaramillo, R. Gomperts, R. E. Stratmann, 
 O. Yazyev, A. J. Austin, R. Cammi, C. Pomelli, J. W. Ochterski, 
 R. L. Martin, K. Morokuma, V. G. Zakrzewski, G. A. Voth, 
 P. Salvador, J. J. Dannenberg, S. Dapprich, A. D. Daniels, 
 O. Farkas, J. B. Foresman, J. V. Ortiz, J. Cioslowski, 
 and D. J. Fox, Gaussian, Inc., Wallingford CT, 2013.
 
 ******************************************
 Gaussian 09:  ES64L-G09RevD.01 24-Apr-2013
                25-Nov-2017 
 ******************************************
 %Chk=VXh13_20_P9_SMD
 %NProcShared=16
 Will use up to   16 processors via shared memory.
 %mem=48000MB
 ----------------------------------------------------------------------
 #P M062X/6-311G(d,p) Opt(TS,NoEigenTest,ReadFC) Freq SCF(Conver=9) SCR
 F(SMD) Int(Grid=UltraFine) Guess(Read) Geom(Check)
 ----------------------------------------------------------------------
 1/5=1,10=3,11=1,14=-1,18=20,26=4,29=2,38=1/1,3;
 2/9=110,12=2,40=1/2;
 3/5=4,6=6,7=101,11=2,14=-4,16=1,25=1,30=1,70=32201,71=1,72=1,74=-55,75=-5,116=-2/1,2,3;
 4/5=1/1;
 5/5=2,6=9,38=6/2;
 6/7=2,8=2,9=2,10=2,28=1/1;
 7//1,2,3,16;
 1/5=1,11=1,14=-1,18=20,26=4/3(2);
 2/9=110/2;
 99//99;
 2/9=110/2;
 3/5=4,6=6,7=101,11=2,14=-2,16=1,25=1,30=1,70=32205,71=1,74=-55,75=-5/1,2,3;
 4/5=5,16=3,69=1/1;
 5/5=2,6=9,38=5/2;
 7//1,2,3,16;
 1/5=1,11=1,14=-1,18=20,26=4/3(-5);
 2/9=110/2;
 6/7=2,8=2,9=2,10=2,19=2,28=1/1;
 99/9=1/99;
 Leave Link    1 at Sat Nov 25 11:26:16 2017, MaxMem=  6291456000 cpu:         1.6
 (Enter /apps/gaussian/g09_d01/g09/l101.exe)
 -----------------------------------------
 TS Opt; potential TS; step 9 VXh13_10_psP
 -----------------------------------------
 Structure from the checkpoint file:  "VXh13_20_P9_SMD.chk"
 Charge =  0 Multiplicity = 1
 Redundant internal coordinates found in file.
 P,0,0.0301838938,0.0114563364,0.0260096591
 S,0,0.0076200321,-0.0360234024,2.1381977969
 O,0,1.6419243362,-0.0093398606,-0.184129703
 C,0,-1.1944463175,1.2731889279,2.5805574342
 C,0,2.4259522632,1.1538465631,0.1273744978
 O,0,-0.3641667979,1.3895408749,-0.6216450468
 C,0,-0.269906086,-1.5725816176,-0.7862521977
 H,0,-0.9577991367,-2.1549163208,-0.1802882667
 H,0,0.6799375727,-2.0785449909,-0.9417752973
 H,0,-0.7596686977,-1.3524036535,-1.7347778623
 H,0,3.317858377,0.7869075884,0.6388017018
 H,0,1.8733663702,1.7938476601,0.8219056033
 C,0,2.782295947,1.8931348098,-1.146784028
 H,0,3.394188396,2.7682665676,-0.9146982319
 H,0,1.8741338069,2.2218322808,-1.6538600244
 H,0,3.3443473822,1.2420187986,-1.8182005578
 C,0,-0.5413202265,2.3660846336,3.4251445568
 H,0,-1.607002462,1.6837107191,1.6626272707
 H,0,-2.0024862516,0.8010279838,3.1417959261
 H,0,-1.3530172215,2.9664463099,3.8723785125
 N,0,0.4029208777,3.1771226962,2.6798580206
 H,0,-0.0210085311,1.8881542019,4.2574377329
 C,0,1.5201004884,3.6964606881,3.4898485747
 C,0,-0.2405622104,4.1473174649,1.7769882446
 C,0,0.6463980172,4.4384593926,0.5677119312
 C,0,-0.7091725212,5.4472009819,2.4462254594
 H,0,-1.1313478462,3.6450896936,1.3882012327
 H,0,1.9457595638,4.5280087308,2.9226585314
 C,0,2.6065674852,2.6303556505,3.630672412
 C,0,1.1366145094,4.2370196902,4.8784517837
 H,0,0.7955566951,3.5269612747,-0.0102152325
 H,0,1.6194449181,4.8382496136,0.8664098289
 H,0,0.1705936551,5.1800508849,-0.0784212819
 H,0,-1.3545807153,5.2532468004,3.3063465625
 H,0,-1.2786234738,6.0454601183,1.7316911513
 H,0,0.1401631838,6.0495989112,2.7798561521
 H,0,3.4262658719,2.9951977422,4.2547282769
 H,0,3.0046119452,2.3529849059,2.6549669901
 H,0,2.2065322291,1.7246304315,4.0949362837
 H,0,1.9949952693,4.7484440045,5.3201944953
 H,0,0.8597510528,3.4271962257,5.5583626347
 H,0,0.308809375,4.944484073,4.8362676902
 O,0,-2.1143470423,0.0967137348,-0.0686662759
 H,0,-1.4540859543,1.1501207049,-0.4892689589
 H,0,-2.6795754934,0.096612767,0.705610831
 Recover connectivity data from disk.
 NAtoms=     45 NQM=       45 NQMF=       0 NMMI=      0 NMMIF=      0
                NMic=       0 NMicF=      0.
                    Isotopes and Nuclear Properties:
 (Nuclear quadrupole moments (NQMom) in fm**2, nuclear magnetic moments (NMagM)
  in nuclear magnetons)

  Atom         1           2           3           4           5           6           7           8           9          10
 IAtWgt=          31          32          16          12          12          16          12           1           1           1
 AtmWgt=  30.9737634  31.9720718  15.9949146  12.0000000  12.0000000  15.9949146  12.0000000   1.0078250   1.0078250   1.0078250
 NucSpn=           1           0           0           0           0           0           0           1           1           1
 AtZEff= -12.9400000 -13.6000000  -5.6000000  -3.6000000  -3.6000000  -5.6000000  -3.6000000  -1.0000000  -1.0000000  -1.0000000
 NQMom=    0.0000000   0.0000000   0.0000000   0.0000000   0.0000000   0.0000000   0.0000000   0.0000000   0.0000000   0.0000000
 NMagM=    1.1316000   0.0000000   0.0000000   0.0000000   0.0000000   0.0000000   0.0000000   2.7928460   2.7928460   2.7928460
 AtZNuc=  15.0000000  16.0000000   8.0000000   6.0000000   6.0000000   8.0000000   6.0000000   1.0000000   1.0000000   1.0000000

  Atom        11          12          13          14          15          16          17          18          19          20
 IAtWgt=           1           1          12           1           1           1          12           1           1           1
 AtmWgt=   1.0078250   1.0078250  12.0000000   1.0078250   1.0078250   1.0078250  12.0000000   1.0078250   1.0078250   1.0078250
 NucSpn=           1           1           0           1           1           1           0           1           1           1
 AtZEff=  -1.0000000  -1.0000000  -3.6000000  -1.0000000  -1.0000000  -1.0000000  -3.6000000  -1.0000000  -1.0000000  -1.0000000
 NQMom=    0.0000000   0.0000000   0.0000000   0.0000000   0.0000000   0.0000000   0.0000000   0.0000000   0.0000000   0.0000000
 NMagM=    2.7928460   2.7928460   0.0000000   2.7928460   2.7928460   2.7928460   0.0000000   2.7928460   2.7928460   2.7928460
 AtZNuc=   1.0000000   1.0000000   6.0000000   1.0000000   1.0000000   1.0000000   6.0000000   1.0000000   1.0000000   1.0000000

  Atom        21          22          23          24          25          26          27          28          29          30
 IAtWgt=          14           1          12          12          12          12           1           1          12          12
 AtmWgt=  14.0030740   1.0078250  12.0000000  12.0000000  12.0000000  12.0000000   1.0078250   1.0078250  12.0000000  12.0000000
 NucSpn=           2           1           0           0           0           0           1           1           0           0
 AtZEff=  -4.5500000  -1.0000000  -3.6000000  -3.6000000  -3.6000000  -3.6000000  -1.0000000  -1.0000000  -3.6000000  -3.6000000
 NQMom=    2.0440000   0.0000000   0.0000000   0.0000000   0.0000000   0.0000000   0.0000000   0.0000000   0.0000000   0.0000000
 NMagM=    0.4037610   2.7928460   0.0000000   0.0000000   0.0000000   0.0000000   2.7928460   2.7928460   0.0000000   0.0000000
 AtZNuc=   7.0000000   1.0000000   6.0000000   6.0000000   6.0000000   6.0000000   1.0000000   1.0000000   6.0000000   6.0000000

  Atom        31          32          33          34          35          36          37          38          39          40
 IAtWgt=           1           1           1           1           1           1           1           1           1           1
 AtmWgt=   1.0078250   1.0078250   1.0078250   1.0078250   1.0078250   1.0078250   1.0078250   1.0078250   1.0078250   1.0078250
 NucSpn=           1           1           1           1           1           1           1           1           1           1
 AtZEff=  -1.0000000  -1.0000000  -1.0000000  -1.0000000  -1.0000000  -1.0000000  -1.0000000  -1.0000000  -1.0000000  -1.0000000
 NQMom=    0.0000000   0.0000000   0.0000000   0.0000000   0.0000000   0.0000000   0.0000000   0.0000000   0.0000000   0.0000000
 NMagM=    2.7928460   2.7928460   2.7928460   2.7928460   2.7928460   2.7928460   2.7928460   2.7928460   2.7928460   2.7928460
 AtZNuc=   1.0000000   1.0000000   1.0000000   1.0000000   1.0000000   1.0000000   1.0000000   1.0000000   1.0000000   1.0000000

  Atom        41          42          43          44          45
 IAtWgt=           1           1          16           1           1
 AtmWgt=   1.0078250   1.0078250  15.9949146   1.0078250   1.0078250
 NucSpn=           1           1           0           1           1
 AtZEff=  -1.0000000  -1.0000000  -5.6000000  -1.0000000  -1.0000000
 NQMom=    0.0000000   0.0000000   0.0000000   0.0000000   0.0000000
 NMagM=    2.7928460   2.7928460   0.0000000   2.7928460   2.7928460
 AtZNuc=   1.0000000   1.0000000   8.0000000   1.0000000   1.0000000
 Leave Link  101 at Sat Nov 25 11:26:17 2017, MaxMem=  6291456000 cpu:         6.4
 (Enter /apps/gaussian/g09_d01/g09/l103.exe)

 GradGradGradGradGradGradGradGradGradGradGradGradGradGradGradGradGradGrad
 Berny optimization.
 Initialization pass.
 Force constant matrix read from checkpoint file:
 "VXh13_20_P9_SMD.chk"
 NVar current= 222 chk= 222 common= 222.
                           ----------------------------
                           !    Initial Parameters    !
                           ! (Angstroms and Degrees)  !
 --------------------------                            --------------------------
 ! Name  Definition              Value          Derivative Info.                !
 --------------------------------------------------------------------------------
 ! R1    R(1,2)                  2.1128         D2E/DX2 =    0.1737             !
 ! R2    R(1,3)                  1.6255         D2E/DX2 =    0.3346             !
 ! R3    R(1,6)                  1.5729         D2E/DX2 =    0.4377             !
 ! R4    R(1,7)                  1.8053         D2E/DX2 =    0.2295             !
 ! R5    R(2,4)                  1.8316         D2E/DX2 =    0.2093             !
 ! R6    R(3,5)                  1.4369         D2E/DX2 =    0.34               !
 ! R7    R(4,17)                 1.5278         D2E/DX2 =    0.2929             !
 ! R8    R(4,18)                 1.0869         D2E/DX2 =    0.3562             !
 ! R9    R(4,19)                 1.0913         D2E/DX2 =    0.3429             !
 ! R10   R(5,11)                 1.0916         D2E/DX2 =    0.3414             !
 ! R11   R(5,12)                 1.0942         D2E/DX2 =    0.3377             !
 ! R12   R(5,13)                 1.5156         D2E/DX2 =    0.3024             !
 ! R13   R(6,44)                 1.1237         D2E/DX2 =    0.166              !
 ! R14   R(7,8)                  1.086          D2E/DX2 =    0.3601             !
 ! R15   R(7,9)                  1.0874         D2E/DX2 =    0.3568             !
 ! R16   R(7,10)                 1.09           D2E/DX2 =    0.3519             !
 ! R17   R(13,14)                1.0928         D2E/DX2 =    0.3432             !
 ! R18   R(13,15)                1.0908         D2E/DX2 =    0.348              !
 ! R19   R(13,16)                1.0912         D2E/DX2 =    0.3459             !
 ! R20   R(17,20)                1.1042         D2E/DX2 =    0.3125             !
 ! R21   R(17,21)                1.4508         D2E/DX2 =    0.3517             !
 ! R22   R(17,22)                1.0917         D2E/DX2 =    0.3434             !
 ! R23   R(21,23)                1.4744         D2E/DX2 =    0.3323             !
 ! R24   R(21,24)                1.4733         D2E/DX2 =    0.3349             !
 ! R25   R(23,28)                1.0929         D2E/DX2 =    0.3387             !
 ! R26   R(23,29)                1.5287         D2E/DX2 =    0.2882             !
 ! R27   R(23,30)                1.5387         D2E/DX2 =    0.2717             !
 ! R28   R(24,25)                1.5277         D2E/DX2 =    0.2923             !
 ! R29   R(24,26)                1.5353         D2E/DX2 =    0.2718             !
 ! R30   R(24,27)                1.094          D2E/DX2 =    0.3359             !
 ! R31   R(25,31)                1.0895         D2E/DX2 =    0.3537             !
 ! R32   R(25,32)                1.0936         D2E/DX2 =    0.3408             !
 ! R33   R(25,33)                1.0926         D2E/DX2 =    0.3429             !
 ! R34   R(26,34)                1.0927         D2E/DX2 =    0.3426             !
 ! R35   R(26,35)                1.0921         D2E/DX2 =    0.3435             !
 ! R36   R(26,36)                1.0934         D2E/DX2 =    0.3408             !
 ! R37   R(29,37)                1.0929         D2E/DX2 =    0.3422             !
 ! R38   R(29,38)                1.0897         D2E/DX2 =    0.351              !
 ! R39   R(29,39)                1.0936         D2E/DX2 =    0.3413             !
 ! R40   R(30,40)                1.0925         D2E/DX2 =    0.3429             !
 ! R41   R(30,41)                1.093          D2E/DX2 =    0.3419             !
 ! R42   R(30,42)                1.0897         D2E/DX2 =    0.3511             !
 ! R43   R(43,44)                1.3124         D2E/DX2 =    0.1384             !
 ! R44   R(43,45)                0.9586         D2E/DX2 =    0.5561             !
 ! A1    A(2,1,3)               98.0211         D2E/DX2 =    0.0533             !
 ! A2    A(2,1,6)              115.381          D2E/DX2 =    0.0648             !
 ! A3    A(2,1,7)              115.3601         D2E/DX2 =    0.0509             !
 ! A4    A(3,1,6)              101.9212         D2E/DX2 =    0.0637             !
 ! A5    A(3,1,7)               95.476          D2E/DX2 =    0.1045             !
 ! A6    A(6,1,7)              122.8078         D2E/DX2 =    0.062              !
 ! A7    A(1,2,4)              103.4378         D2E/DX2 =    0.4809             !
 ! A8    A(1,3,5)              120.1739         D2E/DX2 =    0.2849             !
 ! A9    A(2,4,17)             111.3622         D2E/DX2 =    0.2168             !
 ! A10   A(2,4,18)             108.3683         D2E/DX2 =    0.0667             !
 ! A11   A(2,4,19)             107.5119         D2E/DX2 =    0.0672             !
 ! A12   A(17,4,18)            111.0355         D2E/DX2 =    0.073              !
 ! A13   A(17,4,19)            109.9823         D2E/DX2 =    0.0901             !
 ! A14   A(18,4,19)            108.4643         D2E/DX2 =    0.0288             !
 ! A15   A(3,5,11)             105.9774         D2E/DX2 =    0.0641             !
 ! A16   A(3,5,12)             109.6044         D2E/DX2 =    0.0735             !
 ! A17   A(3,5,13)             109.9318         D2E/DX2 =    0.1722             !
 ! A18   A(11,5,12)            108.1701         D2E/DX2 =    0.0305             !
 ! A19   A(11,5,13)            111.4522         D2E/DX2 =    0.0726             !
 ! A20   A(12,5,13)            111.5336         D2E/DX2 =    0.0724             !
 ! A21   A(1,6,44)              90.4582         D2E/DX2 =    0.6803             !
 ! A22   A(1,7,8)              108.9492         D2E/DX2 =    0.0984             !
 ! A23   A(1,7,9)              109.113          D2E/DX2 =    0.1005             !
 ! A24   A(1,7,10)             106.7977         D2E/DX2 =    0.0947             !
 ! A25   A(8,7,9)              112.5559         D2E/DX2 =    0.0475             !
 ! A26   A(8,7,10)             108.0143         D2E/DX2 =    0.0433             !
 ! A27   A(9,7,10)             111.2249         D2E/DX2 =    0.0446             !
 ! A28   A(5,13,14)            110.1052         D2E/DX2 =    0.1003             !
 ! A29   A(5,13,15)            110.0011         D2E/DX2 =    0.1073             !
 ! A30   A(5,13,16)            110.3244         D2E/DX2 =    0.1048             !
 ! A31   A(14,13,15)           108.8802         D2E/DX2 =    0.0496             !
 ! A32   A(14,13,16)           108.6709         D2E/DX2 =    0.0493             !
 ! A33   A(15,13,16)           108.8206         D2E/DX2 =    0.0511             !
 ! A34   A(4,17,20)            107.372          D2E/DX2 =    0.0783             !
 ! A35   A(4,17,21)            113.2117         D2E/DX2 =    0.307              !
 ! A36   A(4,17,22)            108.181          D2E/DX2 =    0.0819             !
 ! A37   A(20,17,21)           112.4914         D2E/DX2 =    0.0794             !
 ! A38   A(20,17,22)           106.2353         D2E/DX2 =    0.0229             !
 ! A39   A(21,17,22)           109.0367         D2E/DX2 =    0.0713             !
 ! A40   A(17,21,23)           114.0696         D2E/DX2 =    0.1448             !
 ! A41   A(17,21,24)           113.496          D2E/DX2 =    0.1388             !
 ! A42   A(23,21,24)           115.8273         D2E/DX2 =    0.1451             !
 ! A43   A(21,23,28)           106.1417         D2E/DX2 =    0.0269             !
 ! A44   A(21,23,29)           110.0894         D2E/DX2 =    0.0924             !
 ! A45   A(21,23,30)           115.5112         D2E/DX2 =    0.0912             !
 ! A46   A(28,23,29)           107.556          D2E/DX2 =    0.0267             !
 ! A47   A(28,23,30)           107.3458         D2E/DX2 =    0.0286             !
 ! A48   A(29,23,30)           109.8166         D2E/DX2 =    0.0952             !
 ! A49   A(21,24,25)           110.9173         D2E/DX2 =    0.0995             !
 ! A50   A(21,24,26)           115.0704         D2E/DX2 =    0.0987             !
 ! A51   A(21,24,27)           105.7303         D2E/DX2 =    0.0267             !
 ! A52   A(25,24,26)           111.1556         D2E/DX2 =    0.0935             !
 ! A53   A(25,24,27)           106.1956         D2E/DX2 =    0.0281             !
 ! A54   A(26,24,27)           107.161          D2E/DX2 =    0.0281             !
 ! A55   A(24,25,31)           109.8725         D2E/DX2 =    0.1045             !
 ! A56   A(24,25,32)           111.7199         D2E/DX2 =    0.1047             !
 ! A57   A(24,25,33)           110.1589         D2E/DX2 =    0.1038             !
 ! A58   A(31,25,32)           109.2031         D2E/DX2 =    0.0514             !
 ! A59   A(31,25,33)           108.2857         D2E/DX2 =    0.0497             !
 ! A60   A(32,25,33)           107.51           D2E/DX2 =    0.051              !
 ! A61   A(24,26,34)           111.9081         D2E/DX2 =    0.0992             !
 ! A62   A(24,26,35)           109.7399         D2E/DX2 =    0.099              !
 ! A63   A(24,26,36)           111.2456         D2E/DX2 =    0.1006             !
 ! A64   A(34,26,35)           107.7137         D2E/DX2 =    0.05               !
 ! A65   A(34,26,36)           108.4462         D2E/DX2 =    0.0517             !
 ! A66   A(35,26,36)           107.6291         D2E/DX2 =    0.0495             !
 ! A67   A(23,29,37)           110.6614         D2E/DX2 =    0.1017             !
 ! A68   A(23,29,38)           110.7724         D2E/DX2 =    0.1005             !
 ! A69   A(23,29,39)           110.8996         D2E/DX2 =    0.1052             !
 ! A70   A(37,29,38)           108.8012         D2E/DX2 =    0.0504             !
 ! A71   A(37,29,39)           107.9645         D2E/DX2 =    0.0508             !
 ! A72   A(38,29,39)           107.6343         D2E/DX2 =    0.0505             !
 ! A73   A(23,30,40)           109.4844         D2E/DX2 =    0.0986             !
 ! A74   A(23,30,41)           111.3591         D2E/DX2 =    0.1029             !
 ! A75   A(23,30,42)           112.4865         D2E/DX2 =    0.1                !
 ! A76   A(40,30,41)           107.1176         D2E/DX2 =    0.0494             !
 ! A77   A(40,30,42)           107.9747         D2E/DX2 =    0.0502             !
 ! A78   A(41,30,42)           108.2192         D2E/DX2 =    0.0526             !
 ! A79   A(44,43,45)           123.7484         D2E/DX2 =    0.0426             !
 ! A80   A(6,44,43)            134.1627         D2E/DX2 =    0.2647             !
 ! D1    D(3,1,2,4)            133.15           D2E/DX2 =    0.0874             !
 ! D2    D(6,1,2,4)             25.8276         D2E/DX2 =    0.0413             !
 ! D3    D(7,1,2,4)           -126.862          D2E/DX2 =    0.0412             !
 ! D4    D(2,1,3,5)            -72.1194         D2E/DX2 =    0.0477             !
 ! D5    D(6,1,3,5)             46.0554         D2E/DX2 =    0.033              !
 ! D6    D(7,1,3,5)            171.2632         D2E/DX2 =    0.0259             !
 ! D7    D(2,1,6,44)           -81.3204         D2E/DX2 =    0.0883             !
 ! D8    D(3,1,6,44)           173.7275         D2E/DX2 =    0.0817             !
 ! D9    D(7,1,6,44)            69.1233         D2E/DX2 =    0.0815             !
 ! D10   D(2,1,7,8)             33.1355         D2E/DX2 =    0.0172             !
 ! D11   D(2,1,7,9)            -90.1082         D2E/DX2 =    0.0173             !
 ! D12   D(2,1,7,10)           149.5712         D2E/DX2 =    0.0165             !
 ! D13   D(3,1,7,8)            134.7055         D2E/DX2 =    0.0203             !
 ! D14   D(3,1,7,9)             11.4618         D2E/DX2 =    0.022              !
 ! D15   D(3,1,7,10)          -108.8588         D2E/DX2 =    0.0198             !
 ! D16   D(6,1,7,8)           -117.3138         D2E/DX2 =    0.018              !
 ! D17   D(6,1,7,9)            119.4424         D2E/DX2 =    0.0184             !
 ! D18   D(6,1,7,10)            -0.8781         D2E/DX2 =    0.018              !
 ! D19   D(1,2,4,17)          -119.5942         D2E/DX2 =    0.0718             !
 ! D20   D(1,2,4,18)             2.8169         D2E/DX2 =    0.0329             !
 ! D21   D(1,2,4,19)           119.8627         D2E/DX2 =    0.0447             !
 ! D22   D(1,3,5,11)           137.7793         D2E/DX2 =    0.0277             !
 ! D23   D(1,3,5,12)            21.2723         D2E/DX2 =    0.0279             !
 ! D24   D(1,3,5,13)          -101.6578         D2E/DX2 =    0.03               !
 ! D25   D(2,4,17,20)         -165.4042         D2E/DX2 =    0.0304             !
 ! D26   D(2,4,17,21)           69.8253         D2E/DX2 =    0.0422             !
 ! D27   D(2,4,17,22)          -51.1313         D2E/DX2 =    0.0241             !
 ! D28   D(18,4,17,20)          73.7352         D2E/DX2 =    0.0171             !
 ! D29   D(18,4,17,21)         -51.0353         D2E/DX2 =    0.0207             !
 ! D30   D(18,4,17,22)        -171.992          D2E/DX2 =    0.0206             !
 ! D31   D(19,4,17,20)         -46.3245         D2E/DX2 =    0.0164             !
 ! D32   D(19,4,17,21)        -171.0951         D2E/DX2 =    0.0227             !
 ! D33   D(19,4,17,22)          67.9483         D2E/DX2 =    0.0167             !
 ! D34   D(3,5,13,14)         -178.9612         D2E/DX2 =    0.0172             !
 ! D35   D(3,5,13,15)           61.0423         D2E/DX2 =    0.0184             !
 ! D36   D(3,5,13,16)          -59.0191         D2E/DX2 =    0.0177             !
 ! D37   D(11,5,13,14)         -61.7623         D2E/DX2 =    0.0157             !
 ! D38   D(11,5,13,15)         178.2413         D2E/DX2 =    0.0157             !
 ! D39   D(11,5,13,16)          58.1798         D2E/DX2 =    0.0166             !
 ! D40   D(12,5,13,14)          59.2514         D2E/DX2 =    0.0164             !
 ! D41   D(12,5,13,15)         -60.7451         D2E/DX2 =    0.0177             !
 ! D42   D(12,5,13,16)         179.1935         D2E/DX2 =    0.0164             !
 ! D43   D(1,6,44,43)           -5.0054         D2E/DX2 =    0.1761             !
 ! D44   D(4,17,21,23)        -148.9368         D2E/DX2 =    0.0318             !
 ! D45   D(4,17,21,24)          75.4632         D2E/DX2 =    0.0371             !
 ! D46   D(20,17,21,23)         89.1137         D2E/DX2 =    0.0302             !
 ! D47   D(20,17,21,24)        -46.4864         D2E/DX2 =    0.0272             !
 ! D48   D(22,17,21,23)        -28.4651         D2E/DX2 =    0.027              !
 ! D49   D(22,17,21,24)       -164.0651         D2E/DX2 =    0.0345             !
 ! D50   D(17,21,23,28)       -161.5703         D2E/DX2 =    0.0174             !
 ! D51   D(17,21,23,29)         82.3122         D2E/DX2 =    0.024              !
 ! D52   D(17,21,23,30)        -42.7528         D2E/DX2 =    0.0259             !
 ! D53   D(24,21,23,28)        -27.0383         D2E/DX2 =    0.0164             !
 ! D54   D(24,21,23,29)       -143.1558         D2E/DX2 =    0.0238             !
 ! D55   D(24,21,23,30)         91.7792         D2E/DX2 =    0.0296             !
 ! D56   D(17,21,24,25)       -150.9268         D2E/DX2 =    0.0281             !
 ! D57   D(17,21,24,26)         81.8192         D2E/DX2 =    0.0244             !
 ! D58   D(17,21,24,27)        -36.2269         D2E/DX2 =    0.0169             !
 ! D59   D(23,21,24,25)         74.2854         D2E/DX2 =    0.0264             !
 ! D60   D(23,21,24,26)        -52.9686         D2E/DX2 =    0.0242             !
 ! D61   D(23,21,24,27)       -171.0147         D2E/DX2 =    0.0198             !
 ! D62   D(21,23,29,37)       -178.3076         D2E/DX2 =    0.0202             !
 ! D63   D(21,23,29,38)         60.9336         D2E/DX2 =    0.0199             !
 ! D64   D(21,23,29,39)        -58.5164         D2E/DX2 =    0.0196             !
 ! D65   D(28,23,29,37)         66.466          D2E/DX2 =    0.0136             !
 ! D66   D(28,23,29,38)        -54.2928         D2E/DX2 =    0.0133             !
 ! D67   D(28,23,29,39)       -173.7428         D2E/DX2 =    0.0131             !
 ! D68   D(30,23,29,37)        -50.0464         D2E/DX2 =    0.0178             !
 ! D69   D(30,23,29,38)       -170.8052         D2E/DX2 =    0.0184             !
 ! D70   D(30,23,29,39)         69.7448         D2E/DX2 =    0.0179             !
 ! D71   D(21,23,30,40)       -170.327          D2E/DX2 =    0.0187             !
 ! D72   D(21,23,30,41)         71.4044         D2E/DX2 =    0.0183             !
 ! D73   D(21,23,30,42)        -50.2784         D2E/DX2 =    0.0177             !
 ! D74   D(28,23,30,40)        -52.1772         D2E/DX2 =    0.0133             !
 ! D75   D(28,23,30,41)       -170.4458         D2E/DX2 =    0.0135             !
 ! D76   D(28,23,30,42)         67.8714         D2E/DX2 =    0.0133             !
 ! D77   D(29,23,30,40)         64.4673         D2E/DX2 =    0.0171             !
 ! D78   D(29,23,30,41)        -53.8013         D2E/DX2 =    0.0173             !
 ! D79   D(29,23,30,42)       -175.4841         D2E/DX2 =    0.0175             !
 ! D80   D(21,24,25,31)         62.3986         D2E/DX2 =    0.0213             !
 ! D81   D(21,24,25,32)        -58.9644         D2E/DX2 =    0.0195             !
 ! D82   D(21,24,25,33)       -178.3864         D2E/DX2 =    0.0201             !
 ! D83   D(26,24,25,31)       -168.232          D2E/DX2 =    0.0188             !
 ! D84   D(26,24,25,32)         70.405          D2E/DX2 =    0.0177             !
 ! D85   D(26,24,25,33)        -49.017          D2E/DX2 =    0.0177             !
 ! D86   D(27,24,25,31)        -52.01           D2E/DX2 =    0.0138             !
 ! D87   D(27,24,25,32)       -173.3729         D2E/DX2 =    0.0132             !
 ! D88   D(27,24,25,33)         67.205          D2E/DX2 =    0.0136             !
 ! D89   D(21,24,26,34)        -53.5397         D2E/DX2 =    0.0187             !
 ! D90   D(21,24,26,35)       -173.0597         D2E/DX2 =    0.0186             !
 ! D91   D(21,24,26,36)         67.9449         D2E/DX2 =    0.0188             !
 ! D92   D(25,24,26,34)        179.3271         D2E/DX2 =    0.0181             !
 ! D93   D(25,24,26,35)         59.8071         D2E/DX2 =    0.0175             !
 ! D94   D(25,24,26,36)        -59.1883         D2E/DX2 =    0.0179             !
 ! D95   D(27,24,26,34)         63.7            D2E/DX2 =    0.0136             !
 ! D96   D(27,24,26,35)        -55.82           D2E/DX2 =    0.0136             !
 ! D97   D(27,24,26,36)       -174.8153         D2E/DX2 =    0.0138             !
 ! D98   D(45,43,44,6)         117.9963         D2E/DX2 =    0.0329             !
 --------------------------------------------------------------------------------
 Trust Radius=3.00D-01 FncErr=1.00D-07 GrdErr=1.00D-06
 Number of steps in this run=    232 maximum allowed number of steps=    270.
 Search for a saddle point of order  1.
 GradGradGradGradGradGradGradGradGradGradGradGradGradGradGradGradGradGrad

 Leave Link  103 at Sat Nov 25 11:26:17 2017, MaxMem=  6291456000 cpu:         0.2
 (Enter /apps/gaussian/g09_d01/g09/l202.exe)
                          Input orientation:                          
 ---------------------------------------------------------------------
 Center     Atomic      Atomic             Coordinates (Angstroms)
 Number     Number       Type             X           Y           Z
 ---------------------------------------------------------------------
      1         15           0        0.030184    0.011456    0.026010
      2         16           0        0.007620   -0.036023    2.138198
      3          8           0        1.641924   -0.009340   -0.184130
      4          6           0       -1.194446    1.273189    2.580557
      5          6           0        2.425952    1.153847    0.127374
      6          8           0       -0.364167    1.389541   -0.621645
      7          6           0       -0.269906   -1.572582   -0.786252
      8          1           0       -0.957799   -2.154916   -0.180288
      9          1           0        0.679938   -2.078545   -0.941775
     10          1           0       -0.759669   -1.352404   -1.734778
     11          1           0        3.317858    0.786908    0.638802
     12          1           0        1.873366    1.793848    0.821906
     13          6           0        2.782296    1.893135   -1.146784
     14          1           0        3.394188    2.768267   -0.914698
     15          1           0        1.874134    2.221832   -1.653860
     16          1           0        3.344347    1.242019   -1.818201
     17          6           0       -0.541320    2.366085    3.425145
     18          1           0       -1.607002    1.683711    1.662627
     19          1           0       -2.002486    0.801028    3.141796
     20          1           0       -1.353017    2.966446    3.872379
     21          7           0        0.402921    3.177123    2.679858
     22          1           0       -0.021009    1.888154    4.257438
     23          6           0        1.520100    3.696461    3.489849
     24          6           0       -0.240562    4.147317    1.776988
     25          6           0        0.646398    4.438459    0.567712
     26          6           0       -0.709173    5.447201    2.446225
     27          1           0       -1.131348    3.645090    1.388201
     28          1           0        1.945760    4.528009    2.922659
     29          6           0        2.606567    2.630356    3.630672
     30          6           0        1.136615    4.237020    4.878452
     31          1           0        0.795557    3.526961   -0.010215
     32          1           0        1.619445    4.838250    0.866410
     33          1           0        0.170594    5.180051   -0.078421
     34          1           0       -1.354581    5.253247    3.306347
     35          1           0       -1.278623    6.045460    1.731691
     36          1           0        0.140163    6.049599    2.779856
     37          1           0        3.426266    2.995198    4.254728
     38          1           0        3.004612    2.352985    2.654967
     39          1           0        2.206532    1.724630    4.094936
     40          1           0        1.994995    4.748444    5.320194
     41          1           0        0.859751    3.427196    5.558363
     42          1           0        0.308809    4.944484    4.836268
     43          8           0       -2.114347    0.096714   -0.068666
     44          1           0       -1.454086    1.150121   -0.489269
     45          1           0       -2.679575    0.096613    0.705611
 ---------------------------------------------------------------------
                    Distance matrix (angstroms):
                    1          2          3          4          5
     1  P    0.000000
     2  S    2.112842   0.000000
     3  O    1.625515   2.839871   0.000000
     4  C    3.101194   1.831579   4.163337   0.000000
     5  C    2.656132   3.362667   1.436919   4.374887   0.000000
     6  O    1.572923   3.128449   2.484490   3.310136   2.898508
     7  C    1.805270   3.315183   2.541923   4.504286   3.941545
     8  H    2.389946   3.285897   3.370768   4.407967   4.742609
     9  H    2.393093   3.756347   2.404383   5.210975   3.826226
    10  H    2.363124   4.161914   3.158477   5.069999   4.460615
    11  H    3.433022   3.726001   2.029774   4.936373   1.091649
    12  H    2.684714   2.926100   2.077777   3.574271   1.094224
    13  C    3.534159   4.712917   2.417966   5.485607   1.515588
    14  H    4.449883   5.352855   3.364410   5.958829   2.151685
    15  H    3.332848   4.791815   2.681820   5.314734   2.148928
    16  H    3.987364   5.331063   2.671017   6.320656   2.153250
    17  C    4.174327   2.779872   4.841080   1.527849   4.598860
    18  H    2.855754   2.406379   4.102738   1.086888   4.347698
    19  H    3.803064   2.397580   5.000021   1.091262   5.368639
    20  H    5.043785   3.724720   5.854933   2.135665   5.620603
    21  N    4.147685   3.282372   4.459944   2.487249   3.834250
    22  H    4.629211   2.862596   5.108165   2.137070   4.856362
    23  C    5.272313   4.248058   5.219762   3.750709   4.311808
    24  C    4.499397   4.206234   4.966643   3.133087   4.335019
    25  C    4.502390   4.784920   4.619443   4.178420   3.761568
    26  C    5.995950   5.538449   6.497712   4.204273   5.799911
    27  H    4.050681   3.925600   4.849548   2.655486   4.522207
    28  H    5.697302   5.020175   5.507448   4.535612   4.407853
    29  C    5.146842   4.011432   4.738274   4.170414   3.806021
    30  C    6.528841   5.200242   6.626963   4.415706   5.808708
    31  H    3.598039   4.234546   3.640331   3.968842   2.882498
    32  H    5.150724   5.289042   4.960168   4.854477   3.843365
    33  H    5.171556   5.669867   5.394976   4.919052   4.619450
    34  H    6.336762   5.585386   6.989799   4.048861   6.418986
    35  H    6.405586   6.229295   6.990034   4.847910   6.342365
    36  H    6.637389   6.120792   6.910227   4.963365   6.019043
    37  H    6.190165   5.035389   5.649299   5.207604   4.628850
    38  H    4.608839   3.867347   3.936746   4.336310   2.856835
    39  H    4.922156   3.429860   4.651434   3.750173   4.014410
    40  H    7.370748   6.079958   7.284144   5.454864   6.330263
    41  H    6.554570   4.941411   6.737788   4.210320   6.092351
    42  H    6.895722   5.672367   7.177880   4.563597   6.405068
    43  O    2.148312   3.064411   3.759542   3.041167   4.665863
    44  H    1.940393   3.232198   3.320051   3.083244   3.928735
    45  H    2.794979   3.048101   4.413414   2.665589   5.245809
                    6          7          8          9         10
     6  O    0.000000
     7  C    2.968190   0.000000
     8  H    3.620825   1.086049   0.000000
     9  H    3.635967   1.087377   1.807727   0.000000
    10  H    2.985590   1.089976   1.760602   1.796831   0.000000
    11  H    3.938172   4.524381   5.254187   4.203293   5.180421
    12  H    2.693299   4.302631   4.961112   4.419306   4.834087
    13  C    3.229490   4.632182   5.595457   4.498464   4.839914
    14  H    4.013975   5.681993   6.611874   5.555130   5.908213
    15  H    2.601570   4.443785   5.417304   4.519559   4.440566
    16  H    3.899562   4.695713   5.721048   4.346648   4.856021
    17  C    4.166717   5.772575   5.797590   6.349503   6.363932
    18  H    2.617074   4.288155   4.307303   5.115425   4.634472
    19  H    4.146556   4.905652   4.567846   5.671234   5.473832
    20  H    4.864227   6.593841   6.542833   7.263671   7.102445
    21  N    3.831944   5.918303   6.201825   6.388663   6.430959
    22  H    4.916485   6.121883   6.075970   6.577070   6.852261
    23  C    5.077078   7.017975   7.338154   7.327746   7.614795
    24  C    3.657055   6.268039   6.638035   6.855681   6.545908
    25  C    3.425159   6.229402   6.826826   6.689621   6.388472
    26  C    5.098575   7.740750   8.046899   8.369291   7.982353
    27  H    3.116978   5.717904   6.010853   6.439685   5.904751
    28  H    5.267621   7.475453   7.919622   7.757751   7.974353
    29  C    5.333581   6.741514   7.080039   6.840536   7.482110
    30  C    6.372719   8.235207   8.416309   8.600579   8.864105
    31  H    2.507463   5.267142   5.948690   5.683562   5.403799
    32  H    4.247660   6.884744   7.526097   7.210704   7.123942
    33  H    3.866397   6.803904   7.421953   7.327484   6.803078
    34  H    5.598059   8.032298   8.197252   8.714412   8.330755
    35  H    5.296414   8.086539   8.426433   8.773987   8.186215
    36  H    5.791433   8.425136   8.791021   8.955927   8.716723
    37  H    6.381577   7.741949   8.087835   7.764588   8.502815
    38  H    4.797195   6.162348   6.637812   6.162720   6.868011
    39  H    5.382092   6.389863   6.583420   6.493312   7.228558
    40  H    7.221726   9.076003   9.307561   9.356785   9.725284
    41  H    6.621368   8.156472   8.209481   8.520406   8.868878
    42  H    6.548231   8.626690   8.784738   9.102003   9.163574
    43  O    2.245065   2.589100   2.533752   3.647204   2.590564
    44  H    1.123730   2.983888   3.356343   3.896550   2.880301
    45  H    2.965533   3.289129   2.969632   4.327993   3.426542
                   11         12         13         14         15
    11  H    0.000000
    12  H    1.770314   0.000000
    13  C    2.167691   2.170657   0.000000
    14  H    2.518923   2.505631   1.092763   0.000000
    15  H    3.065884   2.512486   1.090838   1.776377   0.000000
    16  H    2.498937   3.072208   1.091171   1.774326   1.774421
    17  C    5.015054   3.596529   5.672093   5.872326   5.625968
    18  H    5.109474   3.582166   5.215610   5.729815   4.838075
    19  H    5.879732   4.624912   6.517573   7.032017   6.328126
    20  H    6.084693   4.592377   6.591267   6.744727   6.442691
    21  N    4.286712   2.743656   4.685428   4.694218   4.675271
    22  H    5.045325   3.924338   6.088034   6.260124   6.216619
    23  C    4.452629   3.295854   5.132590   4.875837   5.362612
    24  C    5.024956   3.304496   4.771525   4.728464   4.466559
    25  C    4.524996   2.926438   3.739015   3.540824   3.369889
    26  C    6.418886   4.759718   6.142594   5.942228   5.821269
    27  H    5.340996   3.574366   4.981175   5.152926   4.506963
    28  H    4.592874   3.448774   4.919626   4.463177   5.125242
    29  C    3.585460   3.021010   4.837196   4.615166   5.350667
    30  C    5.885213   4.792438   6.671247   6.388620   6.875755
    31  H    3.780360   2.204038   2.812172   2.854224   2.359716
    32  H    4.398839   3.055297   3.752182   3.256822   3.641739
    33  H    5.451550   3.895689   4.331998   4.111888   3.759669
    34  H    6.992544   5.344112   6.945104   6.822254   6.649641
    35  H    7.069259   5.370192   6.482167   6.291148   6.001830
    36  H    6.509822   4.994896   6.298854   5.916549   6.108706
    37  H    4.238304   3.954619   5.550277   5.174505   6.157810
    38  H    2.572089   2.225413   3.835909   3.614794   4.456587
    39  H    3.749565   3.290672   5.275939   5.253203   5.779823
    40  H    6.273689   5.383218   7.112977   6.689748   7.418612
    41  H    6.100450   5.111680   7.142025   6.982698   7.382278
    42  H    6.630124   5.337551   7.157218   6.879614   7.210051
    43  O    5.521389   4.424391   5.326028   6.180366   4.789253
    44  H    4.916901   3.633938   4.351015   5.128855   3.685361
    45  H    6.037399   4.860392   6.040770   6.830355   5.551570
                   16         17         18         19         20
    16  H    0.000000
    17  C    6.622281   0.000000
    18  H    6.068535   2.169742   0.000000
    19  H    7.306481   2.159790   1.767336   0.000000
    20  H    7.577702   1.104221   2.567668   2.375836   0.000000
    21  N    5.712193   1.450802   2.702745   3.412506   2.133028
    22  H    6.975421   1.091721   3.047985   2.520467   1.756483
    23  C    6.125973   2.454291   4.143510   4.573105   2.988989
    24  C    5.849591   2.445335   2.819503   4.020538   2.650033
    25  C    4.815469   3.724290   3.723613   5.183956   4.133437
    26  C    7.231868   3.237242   3.947655   4.872720   2.933018
    27  H    6.007296   2.476515   2.036803   3.452921   2.584730
    28  H    5.935446   3.333463   4.722269   5.433880   3.771256
    29  C    5.671156   3.165640   4.745894   4.982852   3.981167
    30  C    7.660892   2.903096   4.938456   4.967491   2.970658
    31  H    3.871189   3.864786   3.459518   5.019455   4.472704
    32  H    4.807837   4.162647   4.582035   5.881745   4.623313
    33  H    5.348611   4.549747   4.291328   5.853880   4.778102
    34  H    8.026883   3.001868   3.937908   4.502123   2.355812
    35  H    7.552923   4.116941   4.374638   5.478726   3.750787
    36  H    7.383884   3.801196   4.833401   5.680620   3.595695
    37  H    6.321456   4.101918   5.811435   5.960231   4.794639
    38  H    4.621568   3.628633   4.764415   5.264656   4.565891
    39  H    6.040921   2.900134   4.523367   4.413316   3.776510
    40  H    8.066750   3.962291   5.978693   6.025560   4.059664
    41  H    8.084671   2.763979   4.929642   4.574818   2.819783
    42  H    8.197847   3.059760   4.937102   5.038011   2.757423
    43  O    5.845506   4.453220   2.402777   3.288714   4.934250
    44  H    4.979906   4.199326   2.222332   3.688799   4.725804
    45  H    6.630929   4.137451   2.141302   2.624814   4.474832
                   21         22         23         24         25
    21  N    0.000000
    22  H    2.080844   0.000000
    23  C    1.474411   2.496834   0.000000
    24  C    1.473269   3.362239   2.497418   0.000000
    25  C    2.472127   4.534707   3.138917   1.527682   0.000000
    26  C    2.538620   4.052268   3.020579   1.535308   2.526647
    27  H    2.059454   3.542908   3.383746   1.094023   2.112586
    28  H    2.064993   3.552273   1.092869   2.497497   2.691121
    29  C    2.461516   2.801402   1.528667   3.720681   4.061186
    30  C    2.548628   2.691267   1.538663   3.394663   4.343198
    31  H    2.740993   4.643849   3.578287   2.156961   1.089531
    32  H    2.743696   4.784686   2.862863   2.183155   1.093560
    33  H    3.416695   5.447290   4.093258   2.162899   1.092628
    34  H    2.791342   3.742571   3.274301   2.191587   3.488254
    35  H    3.457452   5.024359   4.054845   2.163924   2.764599
    36  H    2.886202   4.418919   2.818790   2.183889   2.783097
    37  H    3.413785   3.620670   2.170317   4.572986   4.837847
    38  H    2.729216   3.455193   2.169269   3.810726   3.777170
    39  H    2.713889   2.239438   2.173806   4.150972   4.715951
    40  H    3.460510   3.657182   2.163876   4.232420   4.949838
    41  H    2.925238   2.199271   2.187993   4.003505   5.096545
    42  H    2.789718   3.128095   2.199462   3.208812   4.311681
    43  O    4.835281   5.128986   6.231406   4.829586   5.184346
    44  H    4.195304   5.012946   5.582384   3.948639   4.042575
    45  H    4.784243   4.784671   6.192589   4.848179   5.471083
                   26         27         28         29         30
    26  C    0.000000
    27  H    2.131960   0.000000
    28  H    2.849661   3.550027   0.000000
    29  C    4.509065   4.475530   2.130502   0.000000
    30  C    3.284386   4.204270   2.136473   2.509798   0.000000
    31  H    3.462027   2.383796   3.305573   4.164099   4.951724
    32  H    2.879079   3.043478   2.104968   3.672922   4.085472
    33  H    2.686857   2.490409   3.547232   5.117840   5.137421
    34  H    1.092693   2.513023   3.400799   4.761874   3.116133
    35  H    1.092130   2.429291   3.757354   5.510334   4.359580
    36  H    1.093418   3.055341   2.365546   4.300961   2.946602
    37  H    5.136619   5.423208   2.513129   1.092914   2.678368
    38  H    4.838382   4.514465   2.433836   1.089667   3.461631
    39  H    5.007705   4.707018   3.049782   1.093575   2.840901
    40  H    4.007553   5.143149   2.408152   2.777554   1.092478
    41  H    4.028317   4.626251   3.055837   2.720719   1.093044
    42  H    2.645999   3.956215   2.552442   3.476829   1.089746
    43  O    6.076752   3.959763   6.713335   6.510874   7.223909
    44  H    5.257083   3.139096   5.883054   5.971090   6.712161
    45  H    5.961629   3.931237   6.778370   6.551271   7.008486
                   31         32         33         34         35
    31  H    0.000000
    32  H    1.779534   0.000000
    33  H    1.768597   1.763152   0.000000
    34  H    4.313089   3.869153   3.713242   0.000000
    35  H    3.698553   3.256512   2.475009   1.764344   0.000000
    36  H    3.818081   2.704980   2.987773   1.773592   1.763979
    37  H    5.039161   4.259360   5.843729   5.371658   6.148642
    38  H    3.655317   3.360679   4.847203   5.276208   5.730001
    39  H    4.700161   4.523569   5.788082   5.074892   6.033308
    40  H    5.598566   4.470492   5.714873   3.940821   5.027543
    41  H    5.569841   4.958087   5.943128   3.648192   5.106013
    42  H    5.072937   4.181964   4.922272   2.280978   3.656568
    43  O    4.498617   6.107187   5.573272   6.209492   6.271149
    44  H    3.307530   4.988662   4.364484   5.590370   5.378457
    45  H    4.935204   6.402386   5.880435   5.925396   6.197120
                   36         37         38         39         40
    36  H    0.000000
    37  H    4.722614   0.000000
    38  H    4.678207   1.774673   0.000000
    39  H    4.970379   1.768509   1.762178   0.000000
    40  H    3.403928   2.501525   3.723035   3.269473   0.000000
    41  H    3.887789   2.910856   3.766174   2.618046   1.758181
    42  H    2.340630   3.722424   4.329121   3.810299   1.765174
    43  O    6.973789   7.602062   6.221951   6.217371   8.219800
    44  H    6.101942   7.051784   5.586868   5.894500   7.654669
    45  H    6.905901   7.634090   6.418815   6.165389   8.048946
                   41         42         43         44         45
    41  H    0.000000
    42  H    1.768367   0.000000
    43  O    7.183372   7.309647   0.000000
    44  H    6.863874   6.772469   1.312447   0.000000
    45  H    6.867956   7.035242   0.958639   2.009836   0.000000
 Stoichiometry    C11H28NO3PS
 Framework group  C1[X(C11H28NO3PS)]
 Deg. of freedom   129
 Full point group                 C1      NOp   1
 RotChk:  IX=0 Diff= 9.75D-15
 Largest Abelian subgroup         C1      NOp   1
 Largest concise Abelian subgroup C1      NOp   1
                         Standard orientation:                         
 ---------------------------------------------------------------------
 Center     Atomic      Atomic             Coordinates (Angstroms)
 Number     Number       Type             X           Y           Z
 ---------------------------------------------------------------------
      1         15           0       -2.294102   -0.157821   -0.011931
      2         16           0       -0.988634   -1.163338   -1.334349
      3          8           0       -2.274968    1.296983   -0.736828
      4          6           0        0.167575   -2.033384   -0.211458
      5          6           0       -1.105682    2.128334   -0.657056
      6          8           0       -1.694332    0.176391    1.403224
      7          6           0       -4.053019   -0.461691   -0.281888
      8          1           0       -4.184480   -1.479020   -0.638626
      9          1           0       -4.439220    0.277981   -0.979113
     10          1           0       -4.539633   -0.379760    0.689987
     11          1           0       -0.967277    2.548784   -1.654936
     12          1           0       -0.232443    1.512171   -0.422270
     13          6           0       -1.314197    3.215268    0.378369
     14          1           0       -0.433619    3.860422    0.428280
     15          1           0       -1.480760    2.768813    1.359624
     16          1           0       -2.180229    3.825804    0.117817
     17          6           0        1.608670   -1.577356   -0.434186
     18          1           0       -0.146015   -1.849238    0.812787
     19          1           0        0.079273   -3.102215   -0.413088
     20          1           0        2.267113   -2.309341    0.065768
     21          7           0        1.853099   -0.217653    0.008857
     22          1           0        1.827529   -1.648926   -1.501347
     23          6           0        2.882422    0.493219   -0.771553
     24          6           0        1.952644   -0.085845    1.472838
     25          6           0        1.498478    1.299989    1.927821
     26          6           0        3.322895   -0.442488    2.066463
     27          1           0        1.228139   -0.794778    1.884411
     28          1           0        3.201563    1.337605   -0.155499
     29          6           0        2.271021    1.061767   -2.052086
     30          6           0        4.139049   -0.326497   -1.112787
     31          1           0        0.449711    1.448358    1.672575
     32          1           0        2.095979    2.092597    1.468866
     33          1           0        1.604247    1.394042    3.011243
     34          1           0        3.654438   -1.436973    1.758150
     35          1           0        3.265789   -0.434533    3.157070
     36          1           0        4.084516    0.283647    1.769436
     37          1           0        3.032803    1.565291   -2.652597
     38          1           0        1.479814    1.773977   -1.819445
     39          1           0        1.832375    0.266630   -2.661393
     40          1           0        4.900888    0.333075   -1.534776
     41          1           0        3.923822   -1.091147   -1.863609
     42          1           0        4.566212   -0.817792   -0.238884
     43          8           0       -2.513730   -1.905567    1.217863
     44          1           0       -1.907188   -0.870839    1.750745
     45          1           0       -2.080267   -2.740704    1.034442
 ---------------------------------------------------------------------
 Rotational constants (GHZ):      0.5447230      0.2628344      0.2458493
 Leave Link  202 at Sat Nov 25 11:26:17 2017, MaxMem=  6291456000 cpu:         0.1
 (Enter /apps/gaussian/g09_d01/g09/l301.exe)
 Standard basis: 6-311G(d,p) (5D, 7F)
 Ernie: Thresh=  0.10000D-02 Tol=  0.10000D-05 Strict=F.
 There are   507 symmetry adapted cartesian basis functions of A   symmetry.
 There are   490 symmetry adapted basis functions of A   symmetry.
   490 basis functions,   796 primitive gaussians,   507 cartesian basis functions
    78 alpha electrons       78 beta electrons
       nuclear repulsion energy      1822.4504123386 Hartrees.
 IExCor= 4336 DFT=T Ex+Corr=M062X ExCW=0 ScaHFX=  0.540000
 ScaDFX=  1.000000  1.000000  1.000000  1.000000 ScalE2=  1.000000  1.000000
 IRadAn=      5 IRanWt=     -1 IRanGd=            0 ICorTp=0 IEmpDi=  4
 NAtoms=   45 NActive=   45 NUniq=   45 SFac= 1.00D+00 NAtFMM=   60 NAOKFM=F Big=F
 Integral buffers will be    131072 words long.
 Raffenetti 2 integral format.
 Two-electron integral symmetry is turned on.
 ------------------------------------------------------------------------------
 Polarizable Continuum Model (PCM)
 =================================
 Model                : PCM (using non-symmetric T matrix).
 Atomic radii         : SMD-Coulomb.
 Polarization charges : Total charges.
 Charge compensation  : None.
 Solution method      : On-the-fly selection.
 Cavity type          : VdW (van der Waals Surface) (Alpha=1.000).
 Cavity algorithm     : GePol (No added spheres)
                        Default sphere list used, NSphG=   45.
                        Lebedev-Laikov grids with approx.  5.0 points / Ang**2.
                        Smoothing algorithm: Karplus/York (Gamma=1.0000).
                        Polarization charges: spherical gaussians, with
                                              point-specific exponents (IZeta= 3).
                        Self-potential: point-specific (ISelfS= 7).
                        Self-field    : sphere-specific E.n sum rule (ISelfD= 2).
 1st derivatives      : Analytical E(r).r(x)/FMM algorithm (CHGder, D1EAlg=3).
                        Cavity 1st derivative terms included.
 Solvent              : Water, Eps=  78.355300 Eps(inf)=   1.777849
 ------------------------------------------------------------------------------
 GePol: Number of generator spheres                  =      45
 GePol: Total number of spheres                      =      45
 GePol: Number of exposed spheres                    =      45 (100.00%)
 GePol: Number of points                             =    2878
 GePol: Average weight of points                     =       0.11
 GePol: Minimum weight of points                     =   0.21D-09
 GePol: Maximum weight of points                     =    0.21991
 GePol: Number of points with low weight             =     203
 GePol: Fraction of low-weight points (<1% of avg)   =       7.05%
 GePol: Cavity surface area                          =    323.281 Ang**2
 GePol: Cavity volume                                =    312.270 Ang**3
 ------------------------------------------------------------------------------
 Atomic radii for non-electrostatic terms: SMD-CDS.
 ------------------------------------------------------------------------------
 PCM non-electrostatic energy =         0.0132466876 Hartrees.
 Nuclear repulsion after PCM non-electrostatic terms =     1822.4636590261 Hartrees.
 Leave Link  301 at Sat Nov 25 11:26:17 2017, MaxMem=  6291456000 cpu:         1.5
 (Enter /apps/gaussian/g09_d01/g09/l302.exe)
 NPDir=0 NMtPBC=     1 NCelOv=     1 NCel=       1 NClECP=     1 NCelD=      1
         NCelK=      1 NCelE2=     1 NClLst=     1 CellRange=     0.0.
 One-electron integrals computed using PRISM.
 NBasis=   490 RedAO= T EigKep=  1.48D-03  NBF=   490
 NBsUse=   490 1.00D-06 EigRej= -1.00D+00 NBFU=   490
 Precomputing XC quadrature grid using
 IXCGrd= 4 IRadAn=           5 IRanWt=          -1 IRanGd=           0 AccXCQ= 0.00D+00.
 Generated NRdTot=       0 NPtTot=           0 NUsed=           0 NTot=          32
 NSgBfM=   507   507   507   507   507 MxSgAt=    45 MxSgA2=    45.
 Leave Link  302 at Sat Nov 25 11:26:18 2017, MaxMem=  6291456000 cpu:        15.1
 (Enter /apps/gaussian/g09_d01/g09/l303.exe)
 DipDrv:  MaxL=1.
 Leave Link  303 at Sat Nov 25 11:26:18 2017, MaxMem=  6291456000 cpu:         1.3
 (Enter /apps/gaussian/g09_d01/g09/l401.exe)
 Initial guess from the checkpoint file:  "VXh13_20_P9_SMD.chk"
 B after Tr=     0.000000    0.000000    0.000000
         Rot=    1.000000    0.000000    0.000000    0.000000 Ang=   0.00 deg.
 Guess basis will be translated and rotated to current coordinates.
 JPrj=2 DoOrth=T DoCkMO=T.
 Leave Link  401 at Sat Nov 25 11:26:19 2017, MaxMem=  6291456000 cpu:        11.1
 (Enter /apps/gaussian/g09_d01/g09/l502.exe)
 Closed shell SCF:
 Using DIIS extrapolation, IDIIS=  1040.
 Integral symmetry usage will be decided dynamically.
 IVT=      801642 IEndB=      801642 NGot=  6291456000 MDV=  6290928555
 LenX=  6290928555 LenY=  6290670999
 Requested convergence on RMS density matrix=1.00D-09 within 128 cycles.
 Requested convergence on MAX density matrix=1.00D-07.
 Requested convergence on             energy=1.00D-07.
 No special actions if energy rises.
 Fock matrices will be formed incrementally for  20 cycles.

 Cycle   1  Pass 1  IDiag  1:
 FoFJK:  IHMeth= 1 ICntrl=       0 DoSepK=F KAlg= 0 I1Cent=   0 FoldK=F
 IRaf= 820000000 NMat=   1 IRICut=       1 DoRegI=T DoRafI=F ISym2E= 0.
 FoFCou: FMM=F IPFlag=           0 FMFlag=      100000 FMFlg1=           0
         NFxFlg=           0 DoJE=F BraDBF=F KetDBF=F FulRan=T
         wScrn=  0.000000 ICntrl=       0 IOpCl=  0 I1Cent=           0 NGrid=           0
         NMat0=    1 NMatS0=      1 NMatT0=    0 NMatD0=    1 NMtDS0=    0 NMtDT0=    0
 Symmetry not used in FoFCou.
 Inv3:  Mode=1 IEnd=    24848652.
 Iteration    1 A*A^-1 deviation from unit magnitude is 5.55D-15 for   2833.
 Iteration    1 A*A^-1 deviation from orthogonality  is 3.31D-15 for   1286    306.
 Iteration    1 A^-1*A deviation from unit magnitude is 5.55D-15 for   2874.
 Iteration    1 A^-1*A deviation from orthogonality  is 1.64D-08 for   1311   1286.
 Iteration    2 A*A^-1 deviation from unit magnitude is 2.66D-15 for    619.
 Iteration    2 A*A^-1 deviation from orthogonality  is 2.66D-15 for   1929    637.
 Iteration    2 A^-1*A deviation from unit magnitude is 9.99D-16 for    111.
 Iteration    2 A^-1*A deviation from orthogonality  is 3.76D-16 for   2455    999.
 E= -1455.87921013781    
 DIIS: error= 1.45D-03 at cycle   1 NSaved=   1.
 NSaved= 1 IEnMin= 1 EnMin= -1455.87921013781     IErMin= 1 ErrMin= 1.45D-03
 ErrMax= 1.45D-03  0.00D+00 EMaxC= 1.00D-01 BMatC= 1.32D-03 BMatP= 1.32D-03
 IDIUse=3 WtCom= 9.86D-01 WtEn= 1.45D-02
 Coeff-Com:  0.100D+01
 Coeff-En:   0.100D+01
 Coeff:      0.100D+01
 Gap=     0.289 Goal=   None    Shift=    0.000
 GapD=    0.289 DampG=1.000 DampE=1.000 DampFc=1.0000 IDamp=-1.
 RMSDP=2.74D-04 MaxDP=1.05D-02              OVMax= 1.29D-02

 Cycle   2  Pass 1  IDiag  1:
 RMSU=  2.73D-04    CP:  9.98D-01
 E= -1455.88195195367     Delta-E=       -0.002741815857 Rises=F Damp=F
 DIIS: error= 5.92D-04 at cycle   2 NSaved=   2.
 NSaved= 2 IEnMin= 2 EnMin= -1455.88195195367     IErMin= 2 ErrMin= 5.92D-04
 ErrMax= 5.92D-04  0.00D+00 EMaxC= 1.00D-01 BMatC= 3.43D-04 BMatP= 1.32D-03
 IDIUse=3 WtCom= 9.94D-01 WtEn= 5.92D-03
 Coeff-Com:  0.224D+00 0.776D+00
 Coeff-En:   0.000D+00 0.100D+01
 Coeff:      0.223D+00 0.777D+00
 Gap=     0.288 Goal=   None    Shift=    0.000
 RMSDP=5.61D-05 MaxDP=3.33D-03 DE=-2.74D-03 OVMax= 3.68D-03

 Cycle   3  Pass 1  IDiag  1:
 RMSU=  5.61D-05    CP:  9.98D-01  9.96D-01
 E= -1455.88219729584     Delta-E=       -0.000245342172 Rises=F Damp=F
 DIIS: error= 3.68D-04 at cycle   3 NSaved=   3.
 NSaved= 3 IEnMin= 3 EnMin= -1455.88219729584     IErMin= 3 ErrMin= 3.68D-04
 ErrMax= 3.68D-04  0.00D+00 EMaxC= 1.00D-01 BMatC= 1.19D-04 BMatP= 3.43D-04
 IDIUse=3 WtCom= 9.96D-01 WtEn= 3.68D-03
 Coeff-Com: -0.322D-01 0.356D+00 0.676D+00
 Coeff-En:   0.000D+00 0.165D-01 0.983D+00
 Coeff:     -0.321D-01 0.355D+00 0.678D+00
 Gap=     0.288 Goal=   None    Shift=    0.000
 RMSDP=2.61D-05 MaxDP=1.42D-03 DE=-2.45D-04 OVMax= 2.38D-03

 Cycle   4  Pass 1  IDiag  1:
 RMSU=  1.67D-05    CP:  9.98D-01  1.07D+00  9.70D-01
 E= -1455.88229407394     Delta-E=       -0.000096778101 Rises=F Damp=F
 DIIS: error= 9.67D-05 at cycle   4 NSaved=   4.
 NSaved= 4 IEnMin= 4 EnMin= -1455.88229407394     IErMin= 4 ErrMin= 9.67D-05
 ErrMax= 9.67D-05  0.00D+00 EMaxC= 1.00D-01 BMatC= 6.55D-06 BMatP= 1.19D-04
 IDIUse=1 WtCom= 1.00D+00 WtEn= 0.00D+00
 Coeff-Com: -0.313D-01 0.310D-01 0.195D+00 0.805D+00
 Coeff:     -0.313D-01 0.310D-01 0.195D+00 0.805D+00
 Gap=     0.288 Goal=   None    Shift=    0.000
 RMSDP=8.17D-06 MaxDP=4.24D-04 DE=-9.68D-05 OVMax= 5.45D-04

 Cycle   5  Pass 1  IDiag  1:
 RMSU=  5.76D-06    CP:  9.98D-01  1.08D+00  1.05D+00  1.00D+00
 E= -1455.88230034699     Delta-E=       -0.000006273057 Rises=F Damp=F
 DIIS: error= 2.59D-05 at cycle   5 NSaved=   5.
 NSaved= 5 IEnMin= 5 EnMin= -1455.88230034699     IErMin= 5 ErrMin= 2.59D-05
 ErrMax= 2.59D-05  0.00D+00 EMaxC= 1.00D-01 BMatC= 7.93D-07 BMatP= 6.55D-06
 IDIUse=1 WtCom= 1.00D+00 WtEn= 0.00D+00
 Coeff-Com: -0.943D-02-0.111D-01 0.135D-01 0.280D+00 0.727D+00
 Coeff:     -0.943D-02-0.111D-01 0.135D-01 0.280D+00 0.727D+00
 Gap=     0.288 Goal=   None    Shift=    0.000
 RMSDP=2.43D-06 MaxDP=1.10D-04 DE=-6.27D-06 OVMax= 1.84D-04

 Cycle   6  Pass 1  IDiag  1:
 RMSU=  1.57D-06    CP:  9.97D-01  1.08D+00  1.07D+00  1.07D+00  9.21D-01
 E= -1455.88230104373     Delta-E=       -0.000000696731 Rises=F Damp=F
 DIIS: error= 1.18D-05 at cycle   6 NSaved=   6.
 NSaved= 6 IEnMin= 6 EnMin= -1455.88230104373     IErMin= 6 ErrMin= 1.18D-05
 ErrMax= 1.18D-05  0.00D+00 EMaxC= 1.00D-01 BMatC= 1.18D-07 BMatP= 7.93D-07
 IDIUse=1 WtCom= 1.00D+00 WtEn= 0.00D+00
 Coeff-Com: -0.337D-03-0.562D-02-0.150D-01 0.153D-01 0.294D+00 0.712D+00
 Coeff:     -0.337D-03-0.562D-02-0.150D-01 0.153D-01 0.294D+00 0.712D+00
 Gap=     0.288 Goal=   None    Shift=    0.000
 RMSDP=8.58D-07 MaxDP=5.02D-05 DE=-6.97D-07 OVMax= 8.16D-05

 Cycle   7  Pass 1  IDiag  1:
 RMSU=  5.85D-07    CP:  9.97D-01  1.08D+00  1.07D+00  1.09D+00  9.90D-01
                    CP:  8.67D-01
 E= -1455.88230113792     Delta-E=       -0.000000094191 Rises=F Damp=F
 DIIS: error= 4.71D-06 at cycle   7 NSaved=   7.
 NSaved= 7 IEnMin= 7 EnMin= -1455.88230113792     IErMin= 7 ErrMin= 4.71D-06
 ErrMax= 4.71D-06  0.00D+00 EMaxC= 1.00D-01 BMatC= 1.78D-08 BMatP= 1.18D-07
 IDIUse=1 WtCom= 1.00D+00 WtEn= 0.00D+00
 Coeff-Com:  0.649D-03-0.151D-02-0.721D-02-0.207D-01 0.653D-01 0.340D+00
 Coeff-Com:  0.624D+00
 Coeff:      0.649D-03-0.151D-02-0.721D-02-0.207D-01 0.653D-01 0.340D+00
 Coeff:      0.624D+00
 Gap=     0.288 Goal=   None    Shift=    0.000
 RMSDP=2.80D-07 MaxDP=1.87D-05 DE=-9.42D-08 OVMax= 2.25D-05

 Cycle   8  Pass 1  IDiag  1:
 RMSU=  1.79D-07    CP:  9.97D-01  1.08D+00  1.07D+00  1.10D+00  1.01D+00
                    CP:  9.51D-01  8.31D-01
 E= -1455.88230115228     Delta-E=       -0.000000014366 Rises=F Damp=F
 DIIS: error= 8.23D-07 at cycle   8 NSaved=   8.
 NSaved= 8 IEnMin= 8 EnMin= -1455.88230115228     IErMin= 8 ErrMin= 8.23D-07
 ErrMax= 8.23D-07  0.00D+00 EMaxC= 1.00D-01 BMatC= 9.20D-10 BMatP= 1.78D-08
 IDIUse=1 WtCom= 1.00D+00 WtEn= 0.00D+00
 Coeff-Com:  0.229D-03-0.618D-04-0.528D-03-0.960D-02-0.104D-01 0.375D-01
 Coeff-Com:  0.195D+00 0.788D+00
 Coeff:      0.229D-03-0.618D-04-0.528D-03-0.960D-02-0.104D-01 0.375D-01
 Coeff:      0.195D+00 0.788D+00
 Gap=     0.288 Goal=   None    Shift=    0.000
 RMSDP=1.04D-07 MaxDP=5.22D-06 DE=-1.44D-08 OVMax= 8.63D-06

 Cycle   9  Pass 1  IDiag  1:
 RMSU=  5.80D-08    CP:  9.97D-01  1.08D+00  1.07D+00  1.10D+00  1.02D+00
                    CP:  9.80D-01  9.03D-01  9.43D-01
 E= -1455.88230115322     Delta-E=       -0.000000000937 Rises=F Damp=F
 DIIS: error= 3.22D-07 at cycle   9 NSaved=   9.
 NSaved= 9 IEnMin= 9 EnMin= -1455.88230115322     IErMin= 9 ErrMin= 3.22D-07
 ErrMax= 3.22D-07  0.00D+00 EMaxC= 1.00D-01 BMatC= 1.17D-10 BMatP= 9.20D-10
 IDIUse=1 WtCom= 1.00D+00 WtEn= 0.00D+00
 Coeff-Com:  0.261D-04 0.104D-03 0.561D-03-0.194D-02-0.107D-01-0.190D-01
 Coeff-Com:  0.144D-01 0.309D+00 0.708D+00
 Coeff:      0.261D-04 0.104D-03 0.561D-03-0.194D-02-0.107D-01-0.190D-01
 Coeff:      0.144D-01 0.309D+00 0.708D+00
 Gap=     0.288 Goal=   None    Shift=    0.000
 RMSDP=3.33D-08 MaxDP=1.67D-06 DE=-9.37D-10 OVMax= 4.39D-06

 Cycle  10  Pass 1  IDiag  1:
 RMSU=  1.86D-08    CP:  9.97D-01  1.08D+00  1.07D+00  1.10D+00  1.02D+00
                    CP:  9.88D-01  9.28D-01  1.04D+00  8.89D-01
 E= -1455.88230115338     Delta-E=       -0.000000000161 Rises=F Damp=F
 DIIS: error= 8.30D-08 at cycle  10 NSaved=  10.
 NSaved=10 IEnMin=10 EnMin= -1455.88230115338     IErMin=10 ErrMin= 8.30D-08
 ErrMax= 8.30D-08  0.00D+00 EMaxC= 1.00D-01 BMatC= 9.79D-12 BMatP= 1.17D-10
 IDIUse=1 WtCom= 1.00D+00 WtEn= 0.00D+00
 Coeff-Com: -0.969D-05 0.346D-04 0.217D-03 0.231D-03-0.251D-02-0.993D-02
 Coeff-Com: -0.140D-01 0.200D-01 0.237D+00 0.769D+00
 Coeff:     -0.969D-05 0.346D-04 0.217D-03 0.231D-03-0.251D-02-0.993D-02
 Coeff:     -0.140D-01 0.200D-01 0.237D+00 0.769D+00
 Gap=     0.288 Goal=   None    Shift=    0.000
 RMSDP=1.07D-08 MaxDP=5.12D-07 DE=-1.61D-10 OVMax= 1.24D-06

 Cycle  11  Pass 1  IDiag  1:
 RMSU=  5.51D-09    CP:  9.97D-01  1.08D+00  1.07D+00  1.10D+00  1.02D+00
                    CP:  9.89D-01  9.33D-01  1.06D+00  9.89D-01  1.01D+00
 E= -1455.88230115346     Delta-E=       -0.000000000079 Rises=F Damp=F
 DIIS: error= 3.85D-08 at cycle  11 NSaved=  11.
 NSaved=11 IEnMin=11 EnMin= -1455.88230115346     IErMin=11 ErrMin= 3.85D-08
 ErrMax= 3.85D-08  0.00D+00 EMaxC= 1.00D-01 BMatC= 1.28D-12 BMatP= 9.79D-12
 IDIUse=1 WtCom= 1.00D+00 WtEn= 0.00D+00
 Coeff-Com: -0.544D-05 0.477D-05 0.136D-04 0.306D-03 0.353D-03-0.137D-02
 Coeff-Com: -0.658D-02-0.300D-01 0.107D-01 0.292D+00 0.734D+00
 Coeff:     -0.544D-05 0.477D-05 0.136D-04 0.306D-03 0.353D-03-0.137D-02
 Coeff:     -0.658D-02-0.300D-01 0.107D-01 0.292D+00 0.734D+00
 Gap=     0.288 Goal=   None    Shift=    0.000
 RMSDP=3.61D-09 MaxDP=1.74D-07 DE=-7.91D-11 OVMax= 5.10D-07

 Cycle  12  Pass 1  IDiag  1:
 RMSU=  2.02D-09    CP:  9.97D-01  1.08D+00  1.07D+00  1.10D+00  1.02D+00
                    CP:  9.90D-01  9.34D-01  1.07D+00  1.02D+00  1.11D+00
                    CP:  9.56D-01
 E= -1455.88230115340     Delta-E=        0.000000000065 Rises=F Damp=F
 DIIS: error= 1.04D-08 at cycle  12 NSaved=  12.
 NSaved=12 IEnMin=11 EnMin= -1455.88230115346     IErMin=12 ErrMin= 1.04D-08
 ErrMax= 1.04D-08  0.00D+00 EMaxC= 1.00D-01 BMatC= 1.54D-13 BMatP= 1.28D-12
 IDIUse=1 WtCom= 1.00D+00 WtEn= 0.00D+00
 Coeff-Com: -0.141D-05-0.199D-05-0.184D-04 0.103D-03 0.442D-03 0.624D-03
 Coeff-Com: -0.921D-03-0.146D-01-0.222D-01 0.269D-01 0.293D+00 0.717D+00
 Coeff:     -0.141D-05-0.199D-05-0.184D-04 0.103D-03 0.442D-03 0.624D-03
 Coeff:     -0.921D-03-0.146D-01-0.222D-01 0.269D-01 0.293D+00 0.717D+00
 Gap=     0.288 Goal=   None    Shift=    0.000
 RMSDP=1.23D-09 MaxDP=7.07D-08 DE= 6.50D-11 OVMax= 1.84D-07

 Cycle  13  Pass 1  IDiag  1:
 RMSU=  6.86D-10    CP:  9.97D-01  1.08D+00  1.07D+00  1.10D+00  1.02D+00
                    CP:  9.90D-01  9.34D-01  1.07D+00  1.03D+00  1.14D+00
                    CP:  1.05D+00  9.28D-01
 E= -1455.88230115341     Delta-E=       -0.000000000015 Rises=F Damp=F
 DIIS: error= 3.53D-09 at cycle  13 NSaved=  13.
 NSaved=13 IEnMin=11 EnMin= -1455.88230115346     IErMin=13 ErrMin= 3.53D-09
 ErrMax= 3.53D-09  0.00D+00 EMaxC= 1.00D-01 BMatC= 1.04D-14 BMatP= 1.54D-13
 IDIUse=1 WtCom= 1.00D+00 WtEn= 0.00D+00
 Coeff-Com:  0.102D-07-0.792D-06-0.629D-05 0.585D-05 0.113D-03 0.322D-03
 Coeff-Com:  0.254D-03-0.230D-02-0.809D-02-0.154D-01 0.323D-01 0.226D+00
 Coeff-Com:  0.767D+00
 Coeff:      0.102D-07-0.792D-06-0.629D-05 0.585D-05 0.113D-03 0.322D-03
 Coeff:      0.254D-03-0.230D-02-0.809D-02-0.154D-01 0.323D-01 0.226D+00
 Coeff:      0.767D+00
 Gap=     0.288 Goal=   None    Shift=    0.000
 RMSDP=4.19D-10 MaxDP=2.62D-08 DE=-1.50D-11 OVMax= 7.51D-08

 Error on total polarization charges =  0.06265
 SCF Done:  E(RM062X) =  -1455.88230115     A.U. after   13 cycles
            NFock= 13  Conv=0.42D-09     -V/T= 2.0025
 KE= 1.452254864223D+03 PE=-7.075295338002D+03 EE= 2.344694513599D+03
 SMD-CDS (non-electrostatic) energy       (kcal/mol) =       8.31
 (included in total energy above)
 Leave Link  502 at Sat Nov 25 11:30:09 2017, MaxMem=  6291456000 cpu:      3638.0
 (Enter /apps/gaussian/g09_d01/g09/l601.exe)
 Copying SCF densities to generalized density rwf, IOpCl= 0 IROHF=0.

 **********************************************************************

            Population analysis using the SCF density.

 **********************************************************************

 Orbital symmetries:
       Occupied  (A) (A) (A) (A) (A) (A) (A) (A) (A) (A) (A) (A)
                 (A) (A) (A) (A) (A) (A) (A) (A) (A) (A) (A) (A)
                 (A) (A) (A) (A) (A) (A) (A) (A) (A) (A) (A) (A)
                 (A) (A) (A) (A) (A) (A) (A) (A) (A) (A) (A) (A)
                 (A) (A) (A) (A) (A) (A) (A) (A) (A) (A) (A) (A)
                 (A) (A) (A) (A) (A) (A) (A) (A) (A) (A) (A) (A)
                 (A) (A) (A) (A) (A) (A)
       Virtual   (A) (A) (A) (A) (A) (A) (A) (A) (A) (A) (A) (A)
                 (A) (A) (A) (A) (A) (A) (A) (A) (A) (A) (A) (A)
                 (A) (A) (A) (A) (A) (A) (A) (A) (A) (A) (A) (A)
                 (A) (A) (A) (A) (A) (A) (A) (A) (A) (A) (A) (A)
                 (A) (A) (A) (A) (A) (A) (A) (A) (A) (A) (A) (A)
                 (A) (A) (A) (A) (A) (A) (A) (A) (A) (A) (A) (A)
                 (A) (A) (A) (A) (A) (A) (A) (A) (A) (A) (A) (A)
                 (A) (A) (A) (A) (A) (A) (A) (A) (A) (A) (A) (A)
                 (A) (A) (A) (A) (A) (A) (A) (A) (A) (A) (A) (A)
                 (A) (A) (A) (A) (A) (A) (A) (A) (A) (A) (A) (A)
                 (A) (A) (A) (A) (A) (A) (A) (A) (A) (A) (A) (A)
                 (A) (A) (A) (A) (A) (A) (A) (A) (A) (A) (A) (A)
                 (A) (A) (A) (A) (A) (A) (A) (A) (A) (A) (A) (A)
                 (A) (A) (A) (A) (A) (A) (A) (A) (A) (A) (A) (A)
                 (A) (A) (A) (A) (A) (A) (A) (A) (A) (A) (A) (A)
                 (A) (A) (A) (A) (A) (A) (A) (A) (A) (A) (A) (A)
                 (A) (A) (A) (A) (A) (A) (A) (A) (A) (A) (A) (A)
                 (A) (A) (A) (A) (A) (A) (A) (A) (A) (A) (A) (A)
                 (A) (A) (A) (A) (A) (A) (A) (A) (A) (A) (A) (A)
                 (A) (A) (A) (A) (A) (A) (A) (A) (A) (A) (A) (A)
                 (A) (A) (A) (A) (A) (A) (A) (A) (A) (A) (A) (A)
                 (A) (A) (A) (A) (A) (A) (A) (A) (A) (A) (A) (A)
                 (A) (A) (A) (A) (A) (A) (A) (A) (A) (A) (A) (A)
                 (A) (A) (A) (A) (A) (A) (A) (A) (A) (A) (A) (A)
                 (A) (A) (A) (A) (A) (A) (A) (A) (A) (A) (A) (A)
                 (A) (A) (A) (A) (A) (A) (A) (A) (A) (A) (A) (A)
                 (A) (A) (A) (A) (A) (A) (A) (A) (A) (A) (A) (A)
                 (A) (A) (A) (A) (A) (A) (A) (A) (A) (A) (A) (A)
                 (A) (A) (A) (A) (A) (A) (A) (A) (A) (A) (A) (A)
                 (A) (A) (A) (A) (A) (A) (A) (A) (A) (A) (A) (A)
                 (A) (A) (A) (A) (A) (A) (A) (A) (A) (A) (A) (A)
                 (A) (A) (A) (A) (A) (A) (A) (A) (A) (A) (A) (A)
                 (A) (A) (A) (A) (A) (A) (A) (A) (A) (A) (A) (A)
                 (A) (A) (A) (A) (A) (A) (A) (A) (A) (A) (A) (A)
                 (A) (A) (A) (A)
 The electronic state is 1-A.
 Alpha  occ. eigenvalues --  -89.89591 -78.15921 -19.63906 -19.62586 -19.57597
 Alpha  occ. eigenvalues --  -14.72121 -10.58265 -10.56450 -10.55578 -10.55517
 Alpha  occ. eigenvalues --  -10.55505 -10.53961 -10.51798 -10.51037 -10.50973
 Alpha  occ. eigenvalues --  -10.50918 -10.50874  -8.26248  -6.96932  -6.18376
 Alpha  occ. eigenvalues --   -6.18135  -6.17751  -5.08783  -5.08663  -5.08476
 Alpha  occ. eigenvalues --   -1.19358  -1.14544  -1.05452  -1.02462  -0.89802
 Alpha  occ. eigenvalues --   -0.87527  -0.86708  -0.83595  -0.82006  -0.77792
 Alpha  occ. eigenvalues --   -0.76799  -0.76000  -0.71972  -0.69425  -0.67730
 Alpha  occ. eigenvalues --   -0.64572  -0.62400  -0.60073  -0.57566  -0.55779
 Alpha  occ. eigenvalues --   -0.55404  -0.54785  -0.53563  -0.51647  -0.50421
 Alpha  occ. eigenvalues --   -0.49603  -0.49346  -0.48836  -0.47661  -0.47282
 Alpha  occ. eigenvalues --   -0.46473  -0.46248  -0.45931  -0.45214  -0.44171
 Alpha  occ. eigenvalues --   -0.43776  -0.43351  -0.43064  -0.42871  -0.42352
 Alpha  occ. eigenvalues --   -0.41387  -0.40239  -0.40008  -0.38963  -0.38625
 Alpha  occ. eigenvalues --   -0.37831  -0.37056  -0.36838  -0.36556  -0.35282
 Alpha  occ. eigenvalues --   -0.34916  -0.30151  -0.25988
 Alpha virt. eigenvalues --    0.02808   0.05891   0.07586   0.08377   0.09399
 Alpha virt. eigenvalues --    0.09896   0.11252   0.11580   0.12023   0.12240
 Alpha virt. eigenvalues --    0.12699   0.13366   0.13625   0.14131   0.14674
 Alpha virt. eigenvalues --    0.14835   0.15407   0.15545   0.16830   0.17109
 Alpha virt. eigenvalues --    0.17200   0.17882   0.18227   0.18940   0.19209
 Alpha virt. eigenvalues --    0.19608   0.20615   0.21176   0.21825   0.22039
 Alpha virt. eigenvalues --    0.22626   0.22996   0.23399   0.23576   0.24284
 Alpha virt. eigenvalues --    0.25595   0.25686   0.25936   0.27043   0.27312
 Alpha virt. eigenvalues --    0.27458   0.28825   0.29110   0.29670   0.30524
 Alpha virt. eigenvalues --    0.30842   0.32066   0.33226   0.34254   0.34709
 Alpha virt. eigenvalues --    0.35835   0.36213   0.36954   0.38004   0.38958
 Alpha virt. eigenvalues --    0.40177   0.41360   0.42015   0.42620   0.42969
 Alpha virt. eigenvalues --    0.43563   0.44195   0.44931   0.45511   0.47240
 Alpha virt. eigenvalues --    0.47922   0.48670   0.48806   0.51337   0.52061
 Alpha virt. eigenvalues --    0.52950   0.54126   0.54581   0.55917   0.57701
 Alpha virt. eigenvalues --    0.58178   0.58827   0.59154   0.59677   0.60436
 Alpha virt. eigenvalues --    0.61112   0.61947   0.63103   0.63293   0.63543
 Alpha virt. eigenvalues --    0.63875   0.64176   0.64897   0.65020   0.65420
 Alpha virt. eigenvalues --    0.65770   0.66400   0.66454   0.66859   0.67430
 Alpha virt. eigenvalues --    0.68022   0.68505   0.68733   0.69038   0.69764
 Alpha virt. eigenvalues --    0.70011   0.70372   0.70643   0.71468   0.72149
 Alpha virt. eigenvalues --    0.72183   0.72787   0.73194   0.73468   0.75485
 Alpha virt. eigenvalues --    0.75695   0.76494   0.77488   0.78896   0.80666
 Alpha virt. eigenvalues --    0.82100   0.82383   0.84795   0.85807   0.86979
 Alpha virt. eigenvalues --    0.88035   0.90651   0.92331   0.93149   0.93390
 Alpha virt. eigenvalues --    0.94630   0.96397   0.97536   0.98175   0.99349
 Alpha virt. eigenvalues --    1.00129   1.00714   1.01852   1.03316   1.04023
 Alpha virt. eigenvalues --    1.05454   1.07095   1.08351   1.09165   1.09641
 Alpha virt. eigenvalues --    1.10615   1.12976   1.13690   1.15804   1.17157
 Alpha virt. eigenvalues --    1.18583   1.20557   1.21755   1.22022   1.23435
 Alpha virt. eigenvalues --    1.25357   1.27243   1.27806   1.29432   1.30928
 Alpha virt. eigenvalues --    1.31709   1.33745   1.35987   1.37126   1.39223
 Alpha virt. eigenvalues --    1.40483   1.41244   1.43440   1.44740   1.46221
 Alpha virt. eigenvalues --    1.47164   1.47999   1.48805   1.49492   1.50889
 Alpha virt. eigenvalues --    1.51390   1.51856   1.52262   1.52365   1.53302
 Alpha virt. eigenvalues --    1.53659   1.54647   1.55041   1.55516   1.55757
 Alpha virt. eigenvalues --    1.56243   1.57141   1.57463   1.58260   1.58740
 Alpha virt. eigenvalues --    1.60051   1.60257   1.60976   1.61373   1.61798
 Alpha virt. eigenvalues --    1.62406   1.62770   1.63544   1.64367   1.64683
 Alpha virt. eigenvalues --    1.64943   1.65717   1.66105   1.67697   1.68480
 Alpha virt. eigenvalues --    1.69548   1.70248   1.70865   1.71084   1.71783
 Alpha virt. eigenvalues --    1.72389   1.72896   1.73197   1.74520   1.75424
 Alpha virt. eigenvalues --    1.76234   1.78369   1.78569   1.79119   1.79528
 Alpha virt. eigenvalues --    1.80461   1.82342   1.83124   1.83328   1.83860
 Alpha virt. eigenvalues --    1.84232   1.84923   1.85972   1.86208   1.87306
 Alpha virt. eigenvalues --    1.88442   1.90508   1.90937   1.92501   1.93270
 Alpha virt. eigenvalues --    1.94695   1.95469   1.96036   1.97154   1.99611
 Alpha virt. eigenvalues --    2.00524   2.02183   2.02744   2.04457   2.04854
 Alpha virt. eigenvalues --    2.05502   2.07182   2.08656   2.09800   2.11159
 Alpha virt. eigenvalues --    2.11624   2.13041   2.13841   2.15843   2.16606
 Alpha virt. eigenvalues --    2.18250   2.18576   2.19438   2.20310   2.22088
 Alpha virt. eigenvalues --    2.24004   2.24699   2.25827   2.27647   2.29123
 Alpha virt. eigenvalues --    2.30605   2.31047   2.33458   2.35005   2.35823
 Alpha virt. eigenvalues --    2.38587   2.39487   2.41696   2.42400   2.42861
 Alpha virt. eigenvalues --    2.43503   2.44379   2.45712   2.46007   2.47250
 Alpha virt. eigenvalues --    2.48453   2.49044   2.49609   2.51498   2.52406
 Alpha virt. eigenvalues --    2.52869   2.53461   2.55059   2.55727   2.56233
 Alpha virt. eigenvalues --    2.56849   2.57351   2.57760   2.58132   2.59075
 Alpha virt. eigenvalues --    2.59367   2.59959   2.61020   2.61123   2.61968
 Alpha virt. eigenvalues --    2.62149   2.62815   2.63446   2.63826   2.65531
 Alpha virt. eigenvalues --    2.66347   2.67113   2.67841   2.69698   2.70830
 Alpha virt. eigenvalues --    2.71837   2.73355   2.74174   2.75381   2.76800
 Alpha virt. eigenvalues --    2.79271   2.80926   2.81329   2.81697   2.82957
 Alpha virt. eigenvalues --    2.84947   2.86637   2.88266   2.88741   2.90773
 Alpha virt. eigenvalues --    2.93407   2.93906   2.94910   2.96521   2.97584
 Alpha virt. eigenvalues --    2.98255   3.00272   3.01060   3.02645   3.05398
 Alpha virt. eigenvalues --    3.07010   3.07677   3.08290   3.16148   3.16462
 Alpha virt. eigenvalues --    3.17829   3.18652   3.20144   3.22265   3.24948
 Alpha virt. eigenvalues --    3.28880   3.30320   3.31488   3.40090   3.40507
 Alpha virt. eigenvalues --    3.42089   3.50086   3.64265   3.66857   3.70435
[...]
 -0.00009267,0.00002297,0.00000941,0.00000571,0.00000457,0.00000833,0.0
 0000894,0.00001807,0.00000680,0.00001675,-0.00003552,-0.00017709,0.000
 57959,-0.00036777,0.00018894,0.00005824,-0.00000076,0.00009342,-0.0062
 2024,0.00253743,-0.00225737,0.00010112,0.00024114,0.00019036,-0.000004
 75,0.00001768,0.00000114,-0.00086057,0.00095583,-0.00175624,0.00004177
 ,-0.00007769,0.00006984,-0.00003126,-0.00009537,0.00003735,0.00029884,
 -0.00000916,0.00212742,-0.22966684,0.13060515,-0.00589147,-0.00000197,
 -0.00000517,0.00000598,0.00000464,0.00000573,-0.00000668,-0.00000053,-
 0.00001336,0.00001501,-0.00043619,0.00040437,-0.00091541,-0.00004364,-
 0.00016544,-0.00052287,-0.00038981,-0.00023369,-0.00025348,0.00035167,
 -0.00007740,0.00012207,-0.00015536,0.00066219,-0.00004580,-0.00005041,
 0.00019467,-0.00007628,-0.01754305,0.01364560,-0.00041416,0.00618508,-
 0.00430282,-0.00028319,0.24773047,0.00001760,0.00000871,-0.00003345,-0
 .00000588,0.00003546,0.00003387,-0.00002054,-0.00001184,-0.00000288,-0
 .00011707,0.00002017,0.00003886,-0.00000674,0.00000871,0.00000127,-0.0
 0000415,-0.00000088,0.00000649,-0.00000125,-0.00000290,0.00000701,-0.0
 0000055,-0.00000122,-0.00000019,0.00000012,0.00000114,0.00000065,-0.00
 000007,0.00000248,0.00000072,-0.00000665,0.00000460,0.00000388,0.00001
 464,-0.00000906,-0.00000311,-0.00000013,-0.00000050,-0.00000041,-0.000
 00013,0.00000009,0.00000125,-0.00000008,0.00000079,-0.00000097,0.00000
 037,0.00000006,-0.00000040,-0.00002035,-0.00030336,0.00017162,-0.00000
 091,-0.00000446,0.00000267,-0.00000200,-0.00000009,-0.00000292,-0.0003
 4884,-0.00012324,-0.00005081,-0.00009627,0.00069399,0.00057854,0.00010
 036,0.00008252,-0.00007077,0.00738258,-0.00686224,0.00139278,-0.000089
 12,-0.00005888,-0.00030127,0.00002087,0.00003156,-0.00000352,0.0006564
 0,-0.00063337,0.00088009,0.00000287,0.00004290,0.00001482,-0.00022428,
 0.00017880,-0.00020151,0.00049552,0.00043902,-0.00303194,0.13021506,-0
 .13789882,0.00511894,-0.00000990,-0.00000122,0.00000654,-0.00002142,-0
 .00001358,-0.00000069,-0.00000725,-0.00000446,-0.00000549,-0.00008512,
 -0.00022066,0.00022140,0.00007952,0.00014713,0.00040575,0.00047584,0.0
 0003888,0.00085497,0.00001685,0.00016046,0.00026785,0.00076035,-0.0003
 8283,0.00001820,-0.00025955,0.00026621,0.00006381,-0.01484145,0.011636
 54,-0.00003082,0.01982957,-0.01299468,0.00001531,-0.14389804,0.1457271
 7,0.00001569,-0.00001216,-0.00000778,0.00000174,0.00001210,-0.00002021
 ,-0.00001631,-0.00001254,-0.00001189,0.00000174,-0.00001343,0.00000475
 ,-0.00000675,0.00000498,-0.00000412,-0.00000356,0.00000500,0.00000144,
 -0.00000236,0.00000035,-0.00000082,-0.00000021,-0.00000021,0.00000013,
 0.00000006,0.00000081,0.00000077,-0.00000025,-0.00000028,-0.00000011,-
 0.00001319,0.00000808,0.00000397,0.00002743,-0.00001395,-0.00000224,-0
 .00000082,0.00000147,-0.00000013,0.00000091,0.00000046,0.00000209,-0.0
 0000108,0.00000051,-0.00000179,0.00000031,0.00000055,-0.00000072,-0.00
 061557,-0.00030832,0.00013812,-0.00000741,0.00000056,-0.00000563,0.000
 00752,0.00000357,-0.00000219,-0.00017710,-0.00036976,-0.00012827,-0.00
 040186,0.00144684,0.00257549,0.00001253,0.00001830,-0.00002430,0.02509
 288,-0.01741482,0.00400624,-0.00002716,-0.00025622,-0.00037742,0.00001
 766,0.00010849,0.00002511,-0.00081063,0.00049834,-0.00187237,-0.000021
 07,0.00009340,0.00004891,-0.00042445,0.00073973,0.00094844,0.00124539,
 -0.00121420,-0.00587587,-0.00861357,0.00652419,-0.04636392,-0.00003131
 ,-0.00000766,0.00004431,-0.00001871,-0.00002287,-0.00000250,-0.0000107
 0,-0.00000960,0.00000142,-0.00070416,0.00011987,-0.00049639,0.00000451
 ,0.00001843,0.00005119,-0.00026603,0.00059342,-0.00104397,-0.00005054,
 0.00028030,0.00012491,0.00136743,-0.00143309,-0.00000177,-0.00007881,-
 0.00011580,0.00001125,-0.00870743,0.00755001,-0.00124269,-0.01649822,0
 .00954209,-0.00096920,0.00971510,-0.00636783,0.05046839,0.04919456,-0.
 00472203,-0.00269868,-0.00938614,0.00217239,-0.00928551,-0.01130104,-0
 .00245488,-0.00050644,-0.00174931,0.00170846,0.00128438,0.00212149,0.0
 0302586,0.00130069,-0.07410018,-0.04361570,0.02495016,-0.01854707,0.00
 628936,0.00053786,-0.00101061,0.00013347,-0.00025005,0.00175181,0.0036
 6072,0.00303261,-0.00022561,-0.00008217,-0.00033899,-0.00065136,-0.000
 40591,-0.00019309,0.00008561,0.00011990,0.00012013,-0.00054628,-0.0005
 1141,-0.00035851,-0.00017480,-0.00022731,0.00026404,-0.00009497,0.0000
 3610,-0.00005147,-0.00006674,0.00001858,0.00010015,0.00078943,0.000433
 09,-0.00021650,-0.00131543,-0.00060925,-0.00146156,0.00040151,-0.00041
 386,-0.00048151,-0.00014332,-0.00053928,-0.00022848,-0.00004138,-0.000
 55996,-0.00015410,-0.00006559,-0.00007659,0.00012431,0.00034284,0.0000
 7281,0.00025039,-0.00023863,0.00017167,-0.00019683,-0.00009380,-0.0000
 9639,0.00003965,0.00001757,-0.00007317,0.00004650,-0.00003577,-0.00009
 198,-0.00004977,-0.00007005,-0.00005809,-0.00001978,-0.00009497,-0.000
 08842,-0.00012411,-0.00010163,-0.00004226,-0.00005127,0.00005368,-0.00
 001824,-0.00006475,-0.00000639,-0.00005866,-0.00002666,0.00000482,-0.0
 0004882,0.00004840,-0.00000692,0.00000456,-0.00000816,0.00002434,-0.00
 006805,-0.00000231,0.00000260,-0.00002573,-0.00001819,-0.00004385,-0.0
 0002232,-0.00002051,0.00002760,0.00003025,-0.00000422,0.00000945,-0.00
 004904,0.00004228,-0.00001307,-0.00003193,-0.00004426,0.00000771,-0.00
 000921,0.00001801,0.00000494,0.00000030,-0.00000030,0.20032014,-0.0147
 2455,-0.03573984,0.00997891,0.00391063,0.00152791,0.00104767,-0.001780
 47,0.00588145,-0.00100983,-0.00015292,-0.00327391,-0.00089125,0.001125
 45,0.00017836,-0.00014145,-0.08046602,-0.00827333,0.01760776,0.0132032
 6,-0.00886463,-0.00251053,0.00287255,0.00186339,-0.00069002,0.00070917
 ,-0.00059498,-0.00272206,-0.00029804,-0.00020691,0.00001868,-0.0000375
 4,0.00007226,0.00002945,0.00002044,0.00008518,0.00017683,0.00011768,-0
 .00003683,0.00014719,-0.00006595,0.00002472,-0.00003156,-0.00010942,0.
 00011651,-0.00011189,-0.00004399,0.00000795,0.00001481,-0.00044124,0.0
 0092972,-0.00065300,-0.00139872,0.00064682,-0.00100819,-0.00011275,0.0
 0022036,-0.00018465,0.00005642,0.00003266,0.00001503,0.00000851,-0.000
 04360,-0.00000687,-0.00019557,-0.00031602,-0.00023735,0.00008205,0.000
 00124,0.00004248,-0.00005638,0.00008726,0.00004100,-0.00006961,-0.0000
 3545,0.00000696,-0.00002854,-0.00000619,-0.00001415,0.00001421,-0.0000
 1723,-0.00001551,-0.00001728,-0.00001019,-0.00000282,-0.00000987,-0.00
 001021,0.00001179,-0.00003783,-0.00000702,-0.00002424,0.00007432,0.000
 02401,-0.00001991,-0.00000813,-0.00003129,-0.00001891,0.00000417,-0.00
 000759,0.00001155,0.00000518,-0.00000058,-0.00000541,0.00000172,-0.000
 00821,0.00000018,-0.00000081,-0.00001612,-0.00001175,-0.00001172,0.000
 00762,-0.00000748,0.00000201,-0.00000203,-0.00000025,0.00000760,0.0000
 0649,-0.00000560,-0.00000397,-0.00001309,-0.00000902,-0.00000025,-0.00
 000895,0.00000807,0.00000209,0.00000086,0.00000218,0.01068257,0.070890
 37,-0.00004402,0.00427047,-0.03302129,-0.00948346,-0.00121296,-0.00563
 649,0.00196979,-0.00037986,0.00301787,-0.00091407,-0.00118664,0.000147
 82,-0.00001273,-0.00048576,0.00004318,0.04748015,0.02010056,0.00875848
 ,0.00979459,-0.00608828,-0.00002618,0.00007513,-0.00025722,-0.00007455
 ,0.00007424,-0.00229309,-0.00036481,0.00044177,0.00075519,0.00126084,0
 .00014936,0.00008510,0.00000058,0.00009057,0.00006518,-0.00012121,-0.0
 0006188,0.00007902,0.00002019,0.00003300,-0.00000696,-0.00001892,-0.00
 001405,-0.00009586,0.00006081,0.00000475,-0.00002183,0.00000567,0.0000
 6702,0.00200115,-0.00074631,-0.00116209,0.00155587,-0.00184093,0.00016
 068,0.00006772,-0.00002027,-0.00005046,-0.00035303,-0.00014358,-0.0002
 2265,-0.00045288,0.00007020,-0.00024941,-0.00051173,-0.00014131,0.0002
 9493,-0.00002059,0.00023695,-0.00015354,0.00018006,-0.00019147,0.00014
 242,-0.00007482,-0.00000384,0.00001639,-0.00005792,0.00007097,-0.00001
 170,0.00006507,-0.00008910,-0.00008406,-0.00006479,-0.00002941,-0.0000
 3378,-0.00005114,-0.00011150,-0.00008380,-0.00001471,-0.00004844,-0.00
 006711,0.00003053,0.00002647,-0.00003082,0.00001927,0.00002293,-0.0000
 2488,-0.00002162,0.00004143,-0.00001456,0.00001302,0.00000759,0.000020
 77,-0.00005031,-0.00000467,-0.00000599,-0.00001831,-0.00000867,-0.0000
 4176,-0.00001141,-0.00000254,-0.00000322,0.00001555,0.00001122,0.00001
 217,-0.00004218,0.00003775,-0.00001328,-0.00003269,-0.00002891,0.00000
 748,-0.00002292,0.00003172,0.00000496,0.00000628,-0.00000109,-0.240811
 00,0.03901566,0.45562616,-0.00219184,0.05829061,-0.02914301,-0.0019699
 5,-0.00247725,0.00198362,0.00733137,-0.00606578,0.00266218,0.00032827,
 -0.00097601,-0.00034300,-0.00233436,-0.00144979,-0.00035460,-0.1296586
 1,-0.02594272,0.01958388,-0.00211195,-0.00092600,0.00244130,-0.0002245
 0,-0.00166724,-0.00035910,-0.00048959,-0.00024778,0.00042653,0.0002501
 9,0.00037956,0.00034313,0.00040710,0.00001353,-0.00002900,0.00006336,-
 0.00021369,-0.00038790,0.00019782,0.00027531,0.00010042,0.00022265,0.0
 0007793,-0.00009496,0.00010863,-0.00018139,0.00020613,0.00008141,-0.00
 002652,-0.00010191,-0.00028057,0.00044538,-0.00032713,0.00111182,0.000
 87733,0.00042038,-0.00001333,0.00016179,0.00025327,0.00003424,0.000099
 09,0.00007690,-0.00003851,0.00020466,0.00020438,-0.00002892,-0.0001566
 8,-0.00008299,-0.00012282,-0.00004894,-0.00005010,-0.00000119,-0.00006
 227,0.00000488,0.00013053,0.00007035,-0.00004741,0.00002884,0.00001820
 ,0.00002132,0.00003621,0.00005363,-0.00002259,0.00000733,0.00000487,-0
 .00000124,0.00004356,0.00003358,0.00001616,0.00003715,0.00002571,0.000
 01710,-0.00012111,-0.00011377,0.00002517,-0.00000667,0.00007313,0.0000
 3645,-0.00001994,0.00002576,-0.00001059,-0.00000768,0.00000744,0.00001
 501,-0.00000695,0.00001579,-0.00000326,-0.00000709,0.00002041,0.000015
 58,0.00001039,0.00000298,0.00001575,-0.00001937,-0.00001025,0.00000836
 ,0.,-0.00000114,0.00000236,0.00000151,0.00000604,0.00002013,-0.0000019
 3,-0.00000796,0.00000367,-0.00000198,0.00000204,-0.00000095,0.00043692
 ,0.04334016,-0.02121049,0.13419228,0.05272031,0.00931940,-0.00255485,-
 0.00133525,-0.00097709,0.00020386,0.00706945,-0.00747028,0.00296467,-0
 .00031151,-0.00020862,0.00003962,-0.00183093,-0.00128135,-0.00039762,0
 .01549155,-0.04260596,0.00628207,-0.00287042,0.00018750,0.00038142,-0.
 00008618,-0.00062643,-0.00012832,0.00017742,0.00070196,0.00043176,-0.0
 0000003,-0.00017000,-0.00022379,0.00014378,0.00018460,0.00008981,-0.00
 005035,0.00007212,-0.00005352,0.00000547,0.00008062,-0.00003443,0.0000
 4554,0.00003914,-0.00004062,0.00005038,-0.00003139,0.00001638,0.000013
 45,-0.00001454,-0.00003238,0.00006141,0.00038055,-0.00022000,0.0003080
 8,0.00100389,-0.00009165,0.00003165,0.00001391,0.00010691,-0.00001779,
 -0.00006118,-0.00001784,-0.00003003,-0.00001380,0.00009948,-0.00004037
 ,-0.00010247,-0.00002540,0.00000324,-0.00003426,0.00002794,-0.00011657
 ,-0.00002119,-0.00005446,-0.00002406,0.00000234,0.00000189,0.00005255,
 0.00001978,0.00003196,0.00006415,0.00013016,0.00004077,-0.00001414,-0.
 00001007,-0.00000665,0.00001195,0.00000411,-0.00001373,0.00000164,0.00
 000810,-0.00000021,-0.00001974,-0.00005751,-0.00000796,0.00001339,0.00
 000241,0.00000251,-0.00000668,-0.00001658,0.00001024,-0.00000719,0.000
 00210,0.00000608,0.00000137,-0.00000370,-0.00000104,-0.00000414,0.0000
 1662,0.00001243,-0.00000209,-0.00000201,0.00000526,-0.00000968,-0.0000
 0007,0.00000457,0.00000154,-0.00000778,0.00000815,-0.00000155,-0.00000
 284,0.00000281,0.00000070,-0.00000774,0.00000638,0.,0.00000190,-0.0000
 0067,-0.00175015,-0.01192474,-0.01154171,-0.06897278,0.04451571,-0.024
 76414,-0.00144111,0.01258412,0.00030243,0.00082485,-0.00031490,-0.0020
 6674,0.00323723,0.00000458,-0.00037418,0.00053776,-0.00030553,0.000759
 95,0.00043894,-0.00006633,-0.00229281,0.00646986,-0.03579642,0.0011745
 6,0.00027714,-0.00081823,0.00006789,0.00052009,0.00009276,0.00006876,-
 0.00009355,-0.00030332,-0.00007123,-0.00028165,-0.00020842,-0.00008751
 ,0.00006851,0.00006350,-0.00006904,0.00012353,0.00024206,-0.00000698,0
 .00007069,-0.00015452,-0.00001493,-0.00002513,0.00002839,0.00010812,0.
 00000547,0.00000276,0.00000872,-0.00000477,0.00003910,0.00000124,-0.00
 064293,0.00036807,0.00061709,-0.00186578,-0.00140343,0.00008251,-0.000
 13762,0.00019677,0.00001611,0.00012758,0.00002079,0.00011542,0.0001325
 5,-0.00002881,0.00014299,0.00017817,0.00005672,-0.00010098,0.00000396,
 -0.00007539,-0.00004757,-0.00008705,0.00002800,-0.00006718,0.00002808,
 0.00003053,0.00003218,0.00003458,-0.00001247,-0.00000589,-0.00004997,0
 .00001024,0.00003291,0.00002359,0.00000923,0.00000387,0.00001491,0.000
 03304,0.00003156,0.00000677,0.00001995,0.00002473,-0.00001498,-0.00000
 997,0.00002058,-0.00001023,-0.00001979,0.00000657,-0.00000052,-0.00002
 212,0.00000321,-0.00000571,-0.00000454,-0.00000866,0.00001629,0.000001
 10,-0.00000082,0.00001917,0.00001062,0.00001647,-0.00000007,0.00000008
 ,0.00000734,-0.00000230,-0.00000515,-0.00000559,0.00001202,-0.00001002
 ,0.00000517,0.00001251,0.00001001,-0.00000261,0.00000724,-0.00001321,-
 0.00000156,-0.00000351,0.00000006,-0.00045377,-0.02239374,-0.01400950,
 0.02402810,0.00665280,0.04198753,0.00113682,0.00135912,0.01061063,-0.0
 0050366,0.00133523,-0.00038163,0.00021300,-0.00045957,-0.00085060,0.00
 004532,0.00057493,-0.00063541,-0.00028181,-0.00003002,0.00002911,-0.00
 224353,-0.00513182,0.00003262,-0.00244409,0.00088194,-0.00077054,0.000
 01231,0.00021157,0.00006506,0.00027001,0.00062415,0.00027457,0.0000809
 6,-0.00055249,-0.00019152,0.00000173,-0.00000986,0.00000672,-0.0000184
 7,-0.00005228,0.00001065,0.00003026,-0.00002790,-0.00000413,0.00000984
 ,0.00001234,-0.00000378,0.00001150,0.00001690,-0.00001216,0.00000079,0
 .00000840,-0.00002074,0.00009411,-0.00118012,0.00042106,-0.00036631,-0
 .00322751,-0.00148948,-0.00011678,-0.00016359,-0.00021326,0.00001602,0
 .00021154,0.00008461,0.00015731,0.00030609,0.00001260,0.00019841,0.000
 32498,0.00014994,-0.00018531,0.00001957,-0.00015422,0.00008482,-0.0001
 2155,0.00008868,-0.00004704,0.00005296,-0.00000484,0.00000093,0.000035
 48,-0.00003182,0.00001978,-0.00000206,0.00006227,0.00005532,0.00004074
 ,0.00001797,0.00002074,0.00003156,0.00005276,0.00005554,0.00001015,0.0
 0003146,0.00001233,-0.00001465,-0.00000422,0.00001807,0.00000173,-0.00
 000717,0.00000806,0.00001481,-0.00002589,0.00000676,-0.00000470,-0.000
 00017,-0.00001268,0.00003143,0.00000185,0.00000060,0.00001599,0.000010
 58,0.00002600,0.00000184,0.00000506,-0.00000073,-0.00000820,-0.0000043
 5,-0.00000973,0.00001795,-0.00001636,0.00000800,0.00002141,0.00001927,
 -0.00000365,0.00001422,-0.00001751,-0.00000356,-0.00000311,-0.00000040
 ,-0.13547210,0.02383140,0.21396462,-0.00540270,0.00123261,0.00276368,0
 .14451680,-0.00349234,-0.00351503,-0.00150564,-0.00048813,0.00024570,-
 0.00046566,0.00037750,0.00067749,0.00013868,-0.00044323,0.00129044,-0.
 00081166,0.00009385,-0.00010114,-0.00004373,-0.01016322,-0.00373494,-0
 .00094137,0.00260839,-0.00109752,-0.00034270,0.00018363,0.00009416,-0.
 00004365,0.00015706,-0.00062772,-0.00028667,0.00001616,0.00009023,0.00
 032008,0.00001110,0.00003993,0.00001626,0.00001134,0.00003849,0.000021
 03,0.00000328,0.00003088,0.00000945,-0.00000436,0.00000728,-0.00001155
 ,-0.00001048,0.00000115,-0.00001221,-0.00000178,0.00000133,0.00000046,
 0.00020828,-0.00068583,0.00030509,-0.00224212,-0.00339866,-0.00219221,
 -0.00000837,-0.00004242,-0.00005245,-0.00002308,0.00003055,-0.00000657
 ,0.00005860,0.00006435,-0.00000277,0.00014117,0.00018253,0.00012131,-0
 .00006031,0.00001127,-0.00004931,-0.00000740,-0.00006001,0.00000007,-0
 .00001705,0.00002396,0.00000897,0.00001096,0.00001243,-0.00000778,0.00
 004446,-0.00002088,0.00001065,0.00002179,0.00001369,0.00000680,0.00000
 257,0.00000877,0.00001322,0.00002269,0.00000250,0.00001392,0.00000020,
 -0.00000436,-0.00000602,0.00001300,-0.00000040,-0.00000642,0.00000505,
 0.00000310,-0.00001006,0.00000080,-0.00000406,-0.00000245,-0.00000469,
 0.00000440,0.00000012,0.00000221,0.00000959,0.00000510,0.00000980,-0.0
 0000253,0.00000220,0.00000554,0.00000050,-0.00000087,-0.00000611,-0.00
 000039,-0.00000617,0.00000358,0.00000913,0.00000583,-0.00000091,0.0000
 0603,-0.00000902,-0.00000132,-0.00000185,-0.00000061,0.02819075,-0.013
 15615,-0.04295450,0.00502269,0.00896467,0.00721634,-0.02025161,0.01458
 937,0.00562709,0.00135784,0.00299813,-0.00109650,0.00034646,-0.0006416
 0,-0.00059654,-0.00041627,-0.00031184,-0.00163176,-0.00148407,-0.00088
 004,-0.00005002,0.00013410,0.00005117,-0.00146520,-0.00263592,0.001620
 09,-0.00127878,0.00050709,-0.00020141,0.00002782,0.00004231,-0.0001135
 1,0.00006255,0.00056112,0.00033306,-0.00003305,-0.00015051,0.00010107,
 -0.00002348,-0.00003440,-0.00001727,0.00002975,-0.00002685,-0.00000791
 ,-0.00002042,-0.00002982,-0.00001556,-0.00000218,-0.00000804,0.0000125
 2,0.00000430,-0.00000335,0.00000199,0.00000010,0.00000432,-0.00000383,
 0.00000092,-0.00037329,-0.00040591,-0.00195109,-0.00243663,-0.00133084
 ,0.00039456,0.00013617,-0.00057854,-0.00000128,0.00005314,0.00003468,0
 .00018533,0.00017236,0.00007192,0.00005620,0.00003673,0.00003268,-0.00
 006760,0.00004133,-0.00007464,0.00001905,-0.00003797,0.00003693,-0.000
 00795,0.00001194,-0.00000080,0.00000370,0.00001232,-0.00001136,0.00001
 968,0.00003500,0.00003794,0.00002744,0.00001589,0.00001364,0.00000069,
 0.00000841,0.00001766,0.00001965,0.00000241,0.00000767,0.00000948,0.00
 000059,0.00000072,0.00000355,0.00000003,-0.00000285,0.00000340,0.00000
 363,-0.00001012,0.00000174,-0.00000218,0.00000018,-0.00000543,0.000012
 39,0.00000064,0.00000033,0.00000543,0.00000372,0.00000983,-0.00000099,
 0.00000075,0.00000097,-0.00000082,-0.00000196,0.00000197,0.00000707,0.
 00000075,0.00000217,0.00000628,0.00000842,-0.00000279,0.00000307,-0.00
 000246,-0.00000192,-0.00000109,0.00000035,0.22596121,-0.03544876,-0.41
 281385,-0.00036193,-0.00198289,-0.00225792,-0.22387556,0.04155645,0.41
 429755\\0.00000034,-0.00000175,0.00000149,0.00000253,-0.00000021,0.000
 00101,0.00000017,0.00000083,-0.00000132,0.00000118,-0.00000092,0.00000
 112,0.00000037,0.00000090,-0.00000082,-0.00000319,-0.00000026,0.000000
 40,0.00000087,-0.00000073,0.00000071,0.00000163,-0.00000131,0.00000145
 ,0.00000120,-0.00000033,0.00000081,0.00000018,-0.00000117,0.00000121,0
 .00000039,0.00000178,-0.00000150,-0.00000024,0.00000148,-0.00000054,-0
 .00000185,0.00000150,-0.00000138,-0.00000182,0.00000179,-0.00000209,-0
 .00000215,0.00000099,-0.00000122,-0.00000145,0.00000172,-0.00000192,0.
 00000148,-0.00000088,0.00000082,0.00000079,-0.00000140,0.00000192,0.00
 000200,-0.00000137,0.00000185,0.00000122,-0.00000111,0.00000144,0.,0.0
 0000018,-0.00000070,0.00000267,0.00000005,0.00000007,0.00000038,0.0000
 0048,-0.00000105,-0.00000091,-0.00000077,0.00000066,-0.00000201,-0.000
 00020,-0.00000060,-0.00000122,-0.00000092,0.00000081,-0.00000138,-0.00
 000071,0.00000083,-0.00000008,0.00000092,-0.00000085,0.00000079,0.0000
 0146,-0.00000130,0.00000044,0.00000049,-0.00000096,-0.00000138,0.00000
 020,-0.00000034,-0.00000277,0.00000093,-0.00000116,-0.00000329,-0.0000
 0074,0.00000004,-0.00000053,-0.00000131,0.00000124,-0.00000275,-0.0000
 0139,0.00000122,-0.00000164,-0.00000005,-0.00000002,0.00000138,0.00000
 247,-0.00000237,0.00000024,0.00000165,-0.00000246,0.00000198,0.0000017
 4,-0.00000070,0.00000082,0.00000138,-0.00000135,0.00000199,0.00000058,
 -0.00000033,0.00000053,0.00000025,0.00000016,0.00000037,-0.00000199,0.
 00000091,0.00000120,-0.00000219,0.00000183,0.00000152,-0.00000206,0.00
 000298\\\@


      THE ONE-EYED VIEW OF OUR UNIVERSE SAYS YOU MUST NOT LOOK
      FAR AFIELD FOR PROBLEMS.  SUCH PROBLEMS MAY NEVER ARRIVE. 
      INSTEAD, TEND TO THE WOLF WITHIN YOUR FENCES.
      THE PACKS RANGING OUTSIDE MAY NOT EVEN EXIST.

                              -- THE AZHAR BOOK SHAMRA I:4
                                 CHILDREN OF DUNE, BY FRANK HERBERT
 Job cpu time:       0 days 12 hours 28 minutes 19.7 seconds.
 File lengths (MBytes):  RWF=   1195 Int=      0 D2E=      0 Chk=     30 Scr=      1
 Normal termination of Gaussian 09 at Sat Nov 25 13:22:32 2017.
