 Entering Gaussian System, Link 0=g09
 Input=/rdsgpfs/general/user/smf115/home/vxHydrolysis/ReactionSMD/Diffuse/reacProd/water_sp.com
 Output=/rdsgpfs/general/user/smf115/home/vxHydrolysis/ReactionSMD/Diffuse/reacProd/water_sp.log
 Initial command:
 /apps/gaussian/g09_d01/g09/l1.exe "/tmp/pbs.773687.pbs/Gau-25176.inp" -scrdir="/tmp/pbs.773687.pbs/"
 Entering Link 1 = /apps/gaussian/g09_d01/g09/l1.exe PID=     25177.
  
 Copyright (c) 1988,1990,1992,1993,1995,1998,2003,2009,2013,
            Gaussian, Inc.  All Rights Reserved.
  
 This is part of the Gaussian(R) 09 program.  It is based on
 the Gaussian(R) 03 system (copyright 2003, Gaussian, Inc.),
 the Gaussian(R) 98 system (copyright 1998, Gaussian, Inc.),
 the Gaussian(R) 94 system (copyright 1995, Gaussian, Inc.),
 the Gaussian 92(TM) system (copyright 1992, Gaussian, Inc.),
 the Gaussian 90(TM) system (copyright 1990, Gaussian, Inc.),
 the Gaussian 88(TM) system (copyright 1988, Gaussian, Inc.),
 the Gaussian 86(TM) system (copyright 1986, Carnegie Mellon
 University), and the Gaussian 82(TM) system (copyright 1983,
 Carnegie Mellon University). Gaussian is a federally registered
 trademark of Gaussian, Inc.
  
 This software contains proprietary and confidential information,
 including trade secrets, belonging to Gaussian, Inc.
  
 This software is provided under written license and may be
 used, copied, transmitted, or stored only in accord with that
 written license.
  
 The following legend is applicable only to US Government
 contracts under FAR:
  
                    RESTRICTED RIGHTS LEGEND
  
 Use, reproduction and disclosure by the US Government is
 subject to restrictions as set forth in subparagraphs (a)
 and (c) of the Commercial Computer Software - Restricted
 Rights clause in FAR 52.227-19.
  
 Gaussian, Inc.
 340 Quinnipiac St., Bldg. 40, Wallingford CT 06492
  
  
 ---------------------------------------------------------------
 Warning -- This program may not be used in any manner that
 competes with the business of Gaussian, Inc. or will provide
 assistance to any competitor of Gaussian, Inc.  The licensee
 of this program is prohibited from giving any competitor of
 Gaussian, Inc. access to this program.  By using this program,
 the user acknowledges that Gaussian, Inc. is engaged in the
 business of creating and licensing software in the field of
 computational chemistry and represents and warrants to the
 licensee that it is not a competitor of Gaussian, Inc. and that
 it will not use this program in any manner prohibited above.
 ---------------------------------------------------------------
  

 Cite this work as:
 Gaussian 09, Revision D.01,
 M. J. Frisch, G. W. Trucks, H. B. Schlegel, G. E. Scuseria, 
 M. A. Robb, J. R. Cheeseman, G. Scalmani, V. Barone, B. Mennucci, 
 G. A. Petersson, H. Nakatsuji, M. Caricato, X. Li, H. P. Hratchian, 
 A. F. Izmaylov, J. Bloino, G. Zheng, J. L. Sonnenberg, M. Hada, 
 M. Ehara, K. Toyota, R. Fukuda, J. Hasegawa, M. Ishida, T. Nakajima, 
 Y. Honda, O. Kitao, H. Nakai, T. Vreven, J. A. Montgomery, Jr., 
 J. E. Peralta, F. Ogliaro, M. Bearpark, J. J. Heyd, E. Brothers, 
 K. N. Kudin, V. N. Staroverov, T. Keith, R. Kobayashi, J. Normand, 
 K. Raghavachari, A. Rendell, J. C. Burant, S. S. Iyengar, J. Tomasi, 
 M. Cossi, N. Rega, J. M. Millam, M. Klene, J. E. Knox, J. B. Cross, 
 V. Bakken, C. Adamo, J. Jaramillo, R. Gomperts, R. E. Stratmann, 
 O. Yazyev, A. J. Austin, R. Cammi, C. Pomelli, J. W. Ochterski, 
 R. L. Martin, K. Morokuma, V. G. Zakrzewski, G. A. Voth, 
 P. Salvador, J. J. Dannenberg, S. Dapprich, A. D. Daniels, 
 O. Farkas, J. B. Foresman, J. V. Ortiz, J. Cioslowski, 
 and D. J. Fox, Gaussian, Inc., Wallingford CT, 2013.
 
 ******************************************
 Gaussian 09:  ES64L-G09RevD.01 24-Apr-2013
                26-Nov-2019 
 ******************************************
 %Chk=water_sp
 %NProcShared=12
 Will use up to   12 processors via shared memory.
 %Mem=45000MB
 ----------------------------------------------------------------------
 #P M062X/6-311++G(d,p) Freq SCRF(SMD) SCF(Conver=9) Int(Grid=UltraFine
 ) Geom(Check) Guess(Read)
 ----------------------------------------------------------------------
 1/10=4,29=2,30=1,38=1/1,3;
 2/12=2,40=1/2;
 3/5=4,6=6,7=1111,11=2,14=-4,16=1,25=1,30=1,70=32201,71=2,72=1,74=-55,75=-5,116=-2,140=1/1,2,3;
 4/5=1/1;
 5/5=2,6=9,38=6,98=1/2;
 8/6=4,10=90,11=11/1;
 11/6=1,8=1,9=11,15=111,16=1/1,2,10;
 10/6=1/2;
 6/7=2,8=2,9=2,10=2,18=1,28=1/1;
 7/8=1,10=1,25=1/1,2,3,16;
 1/10=4,30=1/3;
 99//99;
 Leave Link    1 at Tue Nov 26 18:20:47 2019, MaxMem=  5898240000 cpu:         0.8
 (Enter /apps/gaussian/g09_d01/g09/l101.exe)
 -------------
 water_sp Freq
 -------------
 Structure from the checkpoint file:  "water_sp.chk"
 Charge =  0 Multiplicity = 1
 Redundant internal coordinates found in file.
 O,0,-0.0201699514,0.,-0.0142547123
 H,0,0.0238423323,0.,0.9476611468
 H,0,0.9012634505,0.,-0.2938610194
 Recover connectivity data from disk.
 NAtoms=      3 NQM=        3 NQMF=       0 NMMI=      0 NMMIF=      0
                NMic=       0 NMicF=      0.
                    Isotopes and Nuclear Properties:
 (Nuclear quadrupole moments (NQMom) in fm**2, nuclear magnetic moments (NMagM)
  in nuclear magnetons)

  Atom         1           2           3
 IAtWgt=          16           1           1
 AtmWgt=  15.9949146   1.0078250   1.0078250
 NucSpn=           0           1           1
 AtZEff=  -5.6000000  -1.0000000  -1.0000000
 NQMom=    0.0000000   0.0000000   0.0000000
 NMagM=    0.0000000   2.7928460   2.7928460
 AtZNuc=   8.0000000   1.0000000   1.0000000
 Leave Link  101 at Tue Nov 26 18:20:48 2019, MaxMem=  5898240000 cpu:        10.1
 (Enter /apps/gaussian/g09_d01/g09/l103.exe)

 GradGradGradGradGradGradGradGradGradGradGradGradGradGradGradGradGradGrad
 Berny optimization.
 Initialization pass.
                           ----------------------------
                           !    Initial Parameters    !
                           ! (Angstroms and Degrees)  !
 --------------------------                            --------------------------
 ! Name  Definition              Value          Derivative Info.                !
 --------------------------------------------------------------------------------
 ! R1    R(1,2)                  0.9629         calculate D2E/DX2 analytically  !
 ! R2    R(1,3)                  0.9629         calculate D2E/DX2 analytically  !
 ! A1    A(2,1,3)              104.2605         calculate D2E/DX2 analytically  !
 --------------------------------------------------------------------------------
 Trust Radius=3.00D-01 FncErr=1.00D-07 GrdErr=1.00D-07
 Number of steps in this run=      2 maximum allowed number of steps=      2.
 GradGradGradGradGradGradGradGradGradGradGradGradGradGradGradGradGradGrad

 Leave Link  103 at Tue Nov 26 18:20:48 2019, MaxMem=  5898240000 cpu:         0.1
 (Enter /apps/gaussian/g09_d01/g09/l202.exe)
                          Input orientation:                          
 ---------------------------------------------------------------------
 Center     Atomic      Atomic             Coordinates (Angstroms)
 Number     Number       Type             X           Y           Z
 ---------------------------------------------------------------------
      1          8           0       -0.020170    0.000000   -0.014255
      2          1           0        0.023842    0.000000    0.947661
      3          1           0        0.901263    0.000000   -0.293861
 ---------------------------------------------------------------------
                    Distance matrix (angstroms):
                    1          2          3
     1  O    0.000000
     2  H    0.962922   0.000000
     3  H    0.962922   1.520278   0.000000
 Stoichiometry    H2O
 Framework group  C2V[C2(O),SGV(H2)]
 Deg. of freedom     2
 Full point group                 C2V     NOp   4
 RotChk:  IX=0 Diff= 1.96D-15
 Largest Abelian subgroup         C2V     NOp   4
 Largest concise Abelian subgroup C2      NOp   2
                         Standard orientation:                         
 ---------------------------------------------------------------------
 Center     Atomic      Atomic             Coordinates (Angstroms)
 Number     Number       Type             X           Y           Z
 ---------------------------------------------------------------------
      1          8           0        0.000000    0.000000    0.118221
      2          1           0        0.000000    0.760139   -0.472886
      3          1           0        0.000000   -0.760139   -0.472886
 ---------------------------------------------------------------------
 Rotational constants (GHZ):    808.0062324    433.9263703    282.3142019
 Leave Link  202 at Tue Nov 26 18:20:48 2019, MaxMem=  5898240000 cpu:         0.0
 (Enter /apps/gaussian/g09_d01/g09/l301.exe)
 Standard basis: 6-311++G(d,p) (5D, 7F)
 Ernie: Thresh=  0.10000D-02 Tol=  0.10000D-05 Strict=F.
 There are    18 symmetry adapted cartesian basis functions of A1  symmetry.
 There are     2 symmetry adapted cartesian basis functions of A2  symmetry.
 There are     6 symmetry adapted cartesian basis functions of B1  symmetry.
 There are    11 symmetry adapted cartesian basis functions of B2  symmetry.
 There are    17 symmetry adapted basis functions of A1  symmetry.
 There are     2 symmetry adapted basis functions of A2  symmetry.
 There are     6 symmetry adapted basis functions of B1  symmetry.
 There are    11 symmetry adapted basis functions of B2  symmetry.
    36 basis functions,    54 primitive gaussians,    37 cartesian basis functions
     5 alpha electrons        5 beta electrons
       nuclear repulsion energy         9.1409341245 Hartrees.
 IExCor= 4336 DFT=T Ex+Corr=M062X ExCW=0 ScaHFX=  0.540000
 ScaDFX=  1.000000  1.000000  1.000000  1.000000 ScalE2=  1.000000  1.000000
 IRadAn=      5 IRanWt=     -1 IRanGd=            0 ICorTp=0 IEmpDi=  4
 NAtoms=    3 NActive=    3 NUniq=    2 SFac= 2.25D+00 NAtFMM=   60 NAOKFM=F Big=F
 Integral buffers will be    131072 words long.
 Raffenetti 2 integral format.
 Two-electron integral symmetry is turned on.
 Force inversion solution in PCM.
 ------------------------------------------------------------------------------
 Polarizable Continuum Model (PCM)
 =================================
 Model                : PCM (using non-symmetric T matrix).
 Atomic radii         : SMD-Coulomb.
 Polarization charges : Total charges.
 Charge compensation  : None.
 Solution method      : Matrix inversion.
 Cavity type          : VdW (van der Waals Surface) (Alpha=1.000).
 Cavity algorithm     : GePol (No added spheres)
                        Default sphere list used, NSphG=    3.
                        Lebedev-Laikov grids with approx.  5.0 points / Ang**2.
                        Smoothing algorithm: Karplus/York (Gamma=1.0000).
                        Polarization charges: spherical gaussians, with
                                              point-specific exponents (IZeta= 3).
                        Self-potential: point-specific (ISelfS= 7).
                        Self-field    : sphere-specific E.n sum rule (ISelfD= 2).
 1st derivatives      : Analytical E(r).r(x)/FMM algorithm (CHGder, D1EAlg=3).
                        Cavity 1st derivative terms included.
 2nd derivatives      : Analytical E(r).r(xy)/FMM algorithm (CHGder, D2EAlg=3).
                        Cavity 2nd derivative terms included.
 Solvent              : Water, Eps=  78.355300 Eps(inf)=   1.777849
 ------------------------------------------------------------------------------
 Spheres list:
 ISph  on   Nord     Re0    Alpha      Xe            Ye            Ze
    1   O      1    1.5200  1.000      0.000000      0.000000      0.118221
    2   H      2    1.2000  1.000      0.000000      0.760139     -0.472886
    3   H      3    1.2000  1.000      0.000000     -0.760139     -0.472886
 ------------------------------------------------------------------------------
 GePol: Number of generator spheres                  =       3
 GePol: Total number of spheres                      =       3
 GePol: Number of exposed spheres                    =       3 (100.00%)
 GePol: Number of points                             =     244
 GePol: Average weight of points                     =       0.15
 GePol: Minimum weight of points                     =   0.12D-07
 GePol: Maximum weight of points                     =    0.21991
 GePol: Number of points with low weight             =      16
 GePol: Fraction of low-weight points (<1% of avg)   =       6.56%
 GePol: Cavity surface area                          =     36.029 Ang**2
 GePol: Cavity volume                                =     19.188 Ang**3
 ------------------------------------------------------------------------------
 Atomic radii for non-electrostatic terms: SMD-CDS.
 ------------------------------------------------------------------------------
 PCM non-electrostatic energy =         0.0023148733 Hartrees.
 Nuclear repulsion after PCM non-electrostatic terms =        9.1432489978 Hartrees.
 Leave Link  301 at Tue Nov 26 18:20:48 2019, MaxMem=  5898240000 cpu:         0.8
 (Enter /apps/gaussian/g09_d01/g09/l302.exe)
 NPDir=0 NMtPBC=     1 NCelOv=     1 NCel=       1 NClECP=     1 NCelD=      1
         NCelK=      1 NCelE2=     1 NClLst=     1 CellRange=     0.0.
 One-electron integrals computed using PRISM.
 One-electron integral symmetry used in STVInt
 NBasis=    36 RedAO= T EigKep=  4.99D-03  NBF=    17     2     6    11
 NBsUse=    36 1.00D-06 EigRej= -1.00D+00 NBFU=    17     2     6    11
 Precomputing XC quadrature grid using
 IXCGrd= 4 IRadAn=           5 IRanWt=          -1 IRanGd=           0 AccXCQ= 0.00D+00.
 Generated NRdTot=       0 NPtTot=           0 NUsed=           0 NTot=          32
 NSgBfM=    37    37    37    37    37 MxSgAt=     3 MxSgA2=     3.
 Leave Link  302 at Tue Nov 26 18:20:49 2019, MaxMem=  5898240000 cpu:         3.4
 (Enter /apps/gaussian/g09_d01/g09/l303.exe)
 DipDrv:  MaxL=1.
 Leave Link  303 at Tue Nov 26 18:20:49 2019, MaxMem=  5898240000 cpu:         0.5
 (Enter /apps/gaussian/g09_d01/g09/l401.exe)
 Initial guess from the checkpoint file:  "water_sp.chk"
 B after Tr=     0.000000    0.000000    0.000000
         Rot=    1.000000    0.000000    0.000000    0.000000 Ang=   0.00 deg.
 Guess basis will be translated and rotated to current coordinates.
 JPrj=2 DoOrth=T DoCkMO=T.
 Initial guess orbital symmetries:
       Occupied  (A1) (A1) (B2) (A1) (B1)
       Virtual   (A1) (B2) (A1) (B1) (A1) (B2) (A1) (B2) (B2) (A1)
                 (A1) (B1) (B2) (A1) (A2) (A1) (B1) (B2) (B2) (A1)
                 (A1) (B2) (B1) (A2) (A1) (A1) (B2) (B1) (A1) (B2)
                 (A1)
 The electronic state of the initial guess is 1-A1.
 Leave Link  401 at Tue Nov 26 18:20:49 2019, MaxMem=  5898240000 cpu:         2.2
 (Enter /apps/gaussian/g09_d01/g09/l502.exe)
 Closed shell SCF:
 Using DIIS extrapolation, IDIIS=  1040.
 Integral symmetry usage will be decided dynamically.
 Keep R1 ints in memory in symmetry-blocked form, NReq=3173107.
 IVT=       23477 IEndB=       23477 NGot=  5898240000 MDV=  5898151810
 LenX=  5898151810 LenY=  5898150000
 Requested convergence on RMS density matrix=1.00D-09 within 128 cycles.
 Requested convergence on MAX density matrix=1.00D-07.
 Requested convergence on             energy=1.00D-07.
 No special actions if energy rises.
 FoFCou: FMM=F IPFlag=           0 FMFlag=           0 FMFlg1=           0
         NFxFlg=           0 DoJE=F BraDBF=F KetDBF=F FulRan=T
         wScrn=  0.000000 ICntrl=     600 IOpCl=  0 I1Cent=           0 NGrid=           0
         NMat0=    1 NMatS0=    666 NMatT0=    0 NMatD0=    1 NMtDS0=    0 NMtDT0=    0
 Petite list used in FoFCou.

 Cycle   1  Pass 1  IDiag  1:
 Inv3:  Mode=1 IEnd=      178608.
 Iteration    1 A*A^-1 deviation from unit magnitude is 1.78D-15 for    196.
 Iteration    1 A*A^-1 deviation from orthogonality  is 1.64D-15 for    200     96.
 Iteration    1 A^-1*A deviation from unit magnitude is 1.55D-15 for    226.
 Iteration    1 A^-1*A deviation from orthogonality  is 6.10D-16 for    178      4.
 E= -76.4347617199020    
 DIIS: error= 3.12D-10 at cycle   1 NSaved=   1.
 NSaved= 1 IEnMin= 1 EnMin= -76.4347617199020     IErMin= 1 ErrMin= 3.12D-10
 ErrMax= 3.12D-10  0.00D+00 EMaxC= 1.00D-01 BMatC= 1.35D-18 BMatP= 1.35D-18
 IDIUse=1 WtCom= 1.00D+00 WtEn= 0.00D+00
 Coeff-Com:  0.100D+01
 Coeff:      0.100D+01
 Gap=     0.411 Goal=   None    Shift=    0.000
 Skip diagonalization as Alpha Fock matrix is already diagonal.
 RMSDP=0.00D+00 MaxDP=0.00D+00              OVMax= 0.00D+00

 Error on total polarization charges =  0.02712
 SCF Done:  E(RM062X) =  -76.4347617199     A.U. after    1 cycles
            NFock=  1  Conv=0.00D+00     -V/T= 2.0032
 KE= 7.618939240329D+01 PE=-1.991823597219D+02 EE= 3.741495660092D+01
 SMD-CDS (non-electrostatic) energy       (kcal/mol) =       1.45
 (included in total energy above)
 Leave Link  502 at Tue Nov 26 18:20:49 2019, MaxMem=  5898240000 cpu:         4.0
 (Enter /apps/gaussian/g09_d01/g09/l801.exe)
 DoSCS=F DFT=T ScalE2(SS,OS)=  1.000000  1.000000
 Range of M.O.s used for correlation:     1    36
 NBasis=    36 NAE=     5 NBE=     5 NFC=     0 NFV=     0
 NROrb=     36 NOA=     5 NOB=     5 NVA=    31 NVB=    31
 Leave Link  801 at Tue Nov 26 18:20:49 2019, MaxMem=  5898240000 cpu:         0.5
 (Enter /apps/gaussian/g09_d01/g09/l1101.exe)
 Using compressed storage, NAtomX=     3.
 Will process      4 centers per pass.
 Leave Link 1101 at Tue Nov 26 18:20:50 2019, MaxMem=  5898240000 cpu:         2.0
 (Enter /apps/gaussian/g09_d01/g09/l1102.exe)
 Symmetrizing basis deriv contribution to polar:
 IMax=3 JMax=2 DiffMx= 0.00D+00
 Leave Link 1102 at Tue Nov 26 18:20:50 2019, MaxMem=  5898240000 cpu:         0.6
 (Enter /apps/gaussian/g09_d01/g09/l1110.exe)
 Forming Gx(P) for the SCF density, NAtomX=     3.
 Integral derivatives from FoFJK, PRISM(SPDF).
 Do as many integral derivatives as possible in FoFJK.
 G2DrvN: MDV=    5898239872.
 G2DrvN: will do     4 centers at a time, making    1 passes.
 Calling FoFCou, ICntrl=  3107 FMM=F I1Cent=   0 AccDes= 0.00D+00.
 FoFJK:  IHMeth= 1 ICntrl=    3107 DoSepK=F KAlg= 0 I1Cent=   0 FoldK=F
 IRaf=         0 NMat=   1 IRICut=       1 DoRegI=T DoRafI=F ISym2E= 1.
 FoFCou: FMM=F IPFlag=           0 FMFlag=      100000 FMFlg1=           0
         NFxFlg=           0 DoJE=F BraDBF=F KetDBF=F FulRan=T
         wScrn=  0.000000 ICntrl=    3107 IOpCl=  0 I1Cent=           0 NGrid=           0
         NMat0=    1 NMatS0=      1 NMatT0=    0 NMatD0=    1 NMtDS0=    0 NMtDT0=    0
 Petite list used in FoFCou.
 NEqPCM:  Using equilibrium solvation (IEInf=0, Eps=  78.3553, EpsInf=   1.7778)
 G2PCM: DoFxE=T DoFxN=T DoGrad=T DoDP/DQ/DG/TGxP=FFFF NFrqRd=   0 IEInf=0 SqF1=F DoCFld=F IF1Alg=4.
 GePol: Maximum number of non-zero 1st derivatives   =     154
 End of G2Drv F.D. properties file   721 does not exist.
 End of G2Drv F.D. properties file   722 does not exist.
 End of G2Drv F.D. properties file   788 does not exist.
 Leave Link 1110 at Tue Nov 26 18:20:51 2019, MaxMem=  5898240000 cpu:        14.9
 (Enter /apps/gaussian/g09_d01/g09/l1002.exe)
 Minotr:  Closed shell wavefunction.
          IDoAtm=111
 NEqPCM:  Using equilibrium solvation (IEInf=0, Eps=  78.3553, EpsInf=   1.7778)
          Direct CPHF calculation.
          Differentiating once with respect to electric field.
                with respect to dipole field.
          Differentiating once with respect to nuclear coordinates.
          Using symmetry in CPHF.
          Requested convergence is 1.0D-08 RMS, and 1.0D-07 maximum.
          Secondary convergence is 1.0D-12 RMS, and 1.0D-12 maximum.
          NewPWx=T KeepS1=F KeepF1=F KeepIn=T MapXYZ=F SortEE=F KeepMc=T.
          MDV=    5898239930 using IRadAn=       1.
 Generate precomputed XC quadrature information.
 Keep R1 ints in memory in symmetry-blocked form, NReq=1855717.
 FoFCou: FMM=F IPFlag=           0 FMFlag=           0 FMFlg1=           0
         NFxFlg=           0 DoJE=F BraDBF=F KetDBF=F FulRan=T
         wScrn=  0.000000 ICntrl=     600 IOpCl=  0 I1Cent=           0 NGrid=           0
         NMat0=    1 NMatS0=    666 NMatT0=    0 NMatD0=    1 NMtDS0=    0 NMtDT0=    0
 Petite list used in FoFCou.
          Solving linear equations simultaneously, MaxMat=       0.
          There are     9 degrees of freedom in the 1st order CPHF.  IDoFFX=4 NUNeed=     9.
      9 vectors produced by pass  0 Test12= 1.72D-15 1.11D-08 XBig12= 2.30D+00 9.55D-01.
 AX will form     9 AO Fock derivatives at one time.
      9 vectors produced by pass  1 Test12= 1.72D-15 1.11D-08 XBig12= 1.68D-01 1.55D-01.
      9 vectors produced by pass  2 Test12= 1.72D-15 1.11D-08 XBig12= 2.54D-03 1.89D-02.
      9 vectors produced by pass  3 Test12= 1.72D-15 1.11D-08 XBig12= 1.38D-05 1.44D-03.
      9 vectors produced by pass  4 Test12= 1.72D-15 1.11D-08 XBig12= 1.25D-07 1.32D-04.
      7 vectors produced by pass  5 Test12= 1.72D-15 1.11D-08 XBig12= 4.65D-10 8.41D-06.
      3 vectors produced by pass  6 Test12= 1.72D-15 1.11D-08 XBig12= 1.07D-12 3.95D-07.
      1 vectors produced by pass  7 Test12= 1.72D-15 1.11D-08 XBig12= 1.57D-15 1.40D-08.
 InvSVY:  IOpt=1 It=  1 EMax= 2.22D-16
 Solved reduced A of dimension    56 with     9 vectors.
 FullF1:  Do perturbations    1 to     9.
 Isotropic polarizability for W=    0.000000        8.04 Bohr**3.
 End of Minotr F.D. properties file   721 does not exist.
 End of Minotr F.D. properties file   722 does not exist.
 End of Minotr F.D. properties file   788 does not exist.
 Leave Link 1002 at Tue Nov 26 18:20:52 2019, MaxMem=  5898240000 cpu:        17.2
 (Enter /apps/gaussian/g09_d01/g09/l601.exe)
 Copying SCF densities to generalized density rwf, IOpCl= 0 IROHF=0.

 **********************************************************************

            Population analysis using the SCF density.

 **********************************************************************

 Orbital symmetries:
       Occupied  (A1) (A1) (B2) (A1) (B1)
       Virtual   (A1) (B2) (A1) (B1) (A1) (B2) (A1) (B2) (B2) (A1)
                 (A1) (B1) (B2) (A1) (A2) (A1) (B1) (B2) (B2) (A1)
                 (A1) (B2) (B1) (A2) (A1) (A1) (B2) (B1) (A1) (B2)
                 (A1)
 The electronic state is 1-A1.
 Alpha  occ. eigenvalues --  -19.62238  -1.13210  -0.60360  -0.47997  -0.40453
 Alpha virt. eigenvalues --    0.00696   0.04576   0.16576   0.17524   0.19017
 Alpha virt. eigenvalues --    0.19407   0.25117   0.25448   0.55454   0.61017
 Alpha virt. eigenvalues --    1.01499   1.05395   1.05778   1.28150   1.32734
 Alpha virt. eigenvalues --    1.40751   1.51900   1.73212   2.06078   2.20096
 Alpha virt. eigenvalues --    2.45083   2.62123   3.16566   3.20936   3.37659
 Alpha virt. eigenvalues --    3.73069   3.94529   5.05471   5.42637   5.71806
 Alpha virt. eigenvalues --   49.98046
          Condensed to atoms (all electrons):
               1          2          3
     1  O    8.004104   0.323591   0.323591
     2  H    0.323591   0.367824  -0.017058
     3  H    0.323591  -0.017058   0.367824
 Mulliken charges:
               1
     1  O   -0.651286
     2  H    0.325643
     3  H    0.325643
 Sum of Mulliken charges =   0.00000
 Mulliken charges with hydrogens summed into heavy atoms:
               1
     1  O    0.000000
 APT charges:
               1
     1  O   -0.780103
     2  H    0.390052
     3  H    0.390052
 Sum of APT charges =   0.00000
 APT charges with hydrogens summed into heavy atoms:
               1
     1  O    0.000000
 Electronic spatial extent (au):  <R**2>=             19.7928
 Charge=              0.0000 electrons
 Dipole moment (field-independent basis, Debye):
    X=              0.0000    Y=              0.0000    Z=             -2.6515  Tot=              2.6515
 Quadrupole moment (field-independent basis, Debye-Ang):
   XX=             -7.7904   YY=             -4.1995   ZZ=             -6.3960
   XY=              0.0000   XZ=              0.0000   YZ=              0.0000
 Traceless Quadrupole moment (field-independent basis, Debye-Ang):
   XX=             -1.6618   YY=              1.9291   ZZ=             -0.2674
   XY=              0.0000   XZ=              0.0000   YZ=              0.0000
 Octapole moment (field-independent basis, Debye-Ang**2):
  XXX=              0.0000  YYY=              0.0000  ZZZ=             -2.0812  XYY=              0.0000
  XXY=              0.0000  XXZ=             -0.5950  XZZ=              0.0000  YZZ=              0.0000
  YYZ=             -1.7172  XYZ=              0.0000
 Hexadecapole moment (field-independent basis, Debye-Ang**3):
 XXXX=             -7.3821 YYYY=             -5.9257 ZZZZ=             -7.7131 XXXY=              0.0000
 XXXZ=              0.0000 YYYX=              0.0000 YYYZ=              0.0000 ZZZX=              0.0000
 ZZZY=              0.0000 XXYY=             -2.5397 XXZZ=             -2.5785 YYZZ=             -1.8843
 XXYZ=              0.0000 YYXZ=              0.0000 ZZXY=              0.0000
 N-N= 9.143248997822D+00 E-N=-1.991823597219D+02  KE= 7.618939240329D+01
 Symmetry A1   KE= 6.803709479343D+01
 Symmetry A2   KE= 2.882807900665D-35
 Symmetry B1   KE= 4.456177528475D+00
 Symmetry B2   KE= 3.696120081386D+00
  Exact polarizability:   7.427   0.000   9.210   0.000   0.000   7.493
 Approx polarizability:   5.639   0.000   7.833   0.000   0.000   6.186
 No NMR shielding tensors so no spin-rotation constants.
 Leave Link  601 at Tue Nov 26 18:20:53 2019, MaxMem=  5898240000 cpu:         2.0
 (Enter /apps/gaussian/g09_d01/g09/l701.exe)
 Compute integral second derivatives.
 ... and contract with generalized density number  0.
 D2PCM: PCM CHGder 2nd derivatives, FixD1E=F FixD2E=F DoIter=F DoCFld=F I1PDM=0
 GePol: Maximum number of non-zero 2nd derivatives   =     154
 Leave Link  701 at Tue Nov 26 18:20:54 2019, MaxMem=  5898240000 cpu:        12.1
 (Enter /apps/gaussian/g09_d01/g09/l702.exe)
 L702 exits ... SP integral derivatives will be done elsewhere.
 Leave Link  702 at Tue Nov 26 18:20:54 2019, MaxMem=  5898240000 cpu:         0.5
 (Enter /apps/gaussian/g09_d01/g09/l703.exe)
 Compute integral second derivatives, UseDBF=F ICtDFT=           0.
 Integral derivatives from FoFJK, PRISM(SPDF).
 Calling FoFJK, ICntrl=    100127 FMM=F ISym2X=1 I1Cent= 0 IOpClX= 0 NMat=1 NMatS=1 NMatT=0.
 FoFJK:  IHMeth= 1 ICntrl=  100127 DoSepK=F KAlg= 0 I1Cent=   0 FoldK=F
 IRaf=         0 NMat=   1 IRICut=       1 DoRegI=T DoRafI=F ISym2E= 1.
 FoFCou: FMM=F IPFlag=           0 FMFlag=      100000 FMFlg1=         800
         NFxFlg=           0 DoJE=F BraDBF=F KetDBF=F FulRan=T
         wScrn=  0.000000 ICntrl=  100127 IOpCl=  0 I1Cent=           0 NGrid=           0
         NMat0=    1 NMatS0=      1 NMatT0=    0 NMatD0=    1 NMtDS0=    0 NMtDT0=    0
 Petite list used in FoFCou.
 Leave Link  703 at Tue Nov 26 18:20:54 2019, MaxMem=  5898240000 cpu:         8.8
 (Enter /apps/gaussian/g09_d01/g09/l716.exe)
 Dipole        =-5.43224187D-17-4.96998276D-16-1.04317623D+00
 Polarizability= 7.42668413D+00-2.75676473D-11 9.20985886D+00
                 3.00597712D-11 4.76670476D-11 7.49281849D+00
 Full mass-weighted force constant matrix:
 Low frequencies --- -246.5432 -138.5430  -80.3439   -0.0011    0.0013    0.0022
 Low frequencies --- 1573.8416 3842.8591 3924.5224
 Diagonal vibrational polarizability:
        0.0000000       0.3245149       1.5379688
 Harmonic frequencies (cm**-1), IR intensities (KM/Mole), Raman scattering
 activities (A**4/AMU), depolarization ratios for plane and unpolarized
 incident light, reduced masses (AMU), force constants (mDyne/A),
 and normal coordinates:
                      1                      2                      3
                     A1                     A1                     B2
 Frequencies --   1573.8416              3842.8591              3924.5127
 Red. masses --      1.0809                 1.0468                 1.0816
 Frc consts  --      1.5775                 9.1080                 9.8151
 IR Inten    --    129.5025                71.8783               185.7261
  Atom  AN      X      Y      Z        X      Y      Z        X      Y      Z
     1   8     0.00   0.00   0.07     0.00   0.00   0.05     0.00   0.07   0.00
     2   1     0.00  -0.44  -0.55     0.00   0.58  -0.40     0.00  -0.56   0.43
     3   1     0.00   0.44  -0.55     0.00  -0.58  -0.40     0.00  -0.56  -0.43

 -------------------
 - Thermochemistry -
 -------------------
 Temperature   298.150 Kelvin.  Pressure   1.00000 Atm.
 Atom     1 has atomic number  8 and mass  15.99491
 Atom     2 has atomic number  1 and mass   1.00783
 Atom     3 has atomic number  1 and mass   1.00783
 Molecular mass:    18.01056 amu.
 Principal axes and moments of inertia in atomic units:
                           1         2         3
     Eigenvalues --     2.23357   4.15910   6.39267
           X            0.00000   0.00000   1.00000
           Y            1.00000   0.00000   0.00000
           Z            0.00000   1.00000   0.00000
 This molecule is an asymmetric top.
 Rotational symmetry number  2.
 Rotational temperatures (Kelvin)     38.77814    20.82516    13.54893
 Rotational constants (GHZ):         808.00623   433.92637   282.31420
 Zero-point vibrational energy      55872.9 (Joules/Mol)
                                   13.35393 (Kcal/Mol)
 Vibrational temperatures:   2264.40  5529.01  5646.49
          (Kelvin)
 
 Zero-point correction=                           0.021281 (Hartree/Particle)
 Thermal correction to Energy=                    0.024117
 Thermal correction to Enthalpy=                  0.025061
 Thermal correction to Gibbs Free Energy=         0.003633
 Sum of electronic and zero-point Energies=            -76.413481
 Sum of electronic and thermal Energies=               -76.410645
 Sum of electronic and thermal Enthalpies=             -76.409701
 Sum of electronic and thermal Free Energies=          -76.431129
 
                     E (Thermal)             CV                S
                      KCal/Mol        Cal/Mol-Kelvin    Cal/Mol-Kelvin
 Total                   15.134              6.019             45.100
 Electronic               0.000              0.000              0.000
 Translational            0.889              2.981             34.608
 Rotational               0.889              2.981             10.483
 Vibrational             13.356              0.058              0.009
                       Q            Log10(Q)             Ln(Q)
 Total Bot       0.213369D-01         -1.670869         -3.847317
 Total V=0       0.131106D+09          8.117622         18.691515
 Vib (Bot)       0.162828D-09         -9.788272        -22.538329
 Vib (V=0)       0.100050D+01          0.000219          0.000503
 Electronic      0.100000D+01          0.000000          0.000000
 Translational   0.300432D+07          6.477746         14.915562
 Rotational      0.436171D+02          1.639657          3.775450
 
                                                            water_sp Freq
                                                             IR Spectrum
 
     3  3                                                                         1                                                  
     9  8                                                                         5                                                  
     2  4                                                                         7                                                  
     5  3                                                                         4                                                  
 
     X  X                                                                         X                                                  
     X  X                                                                         X                                                  
     X  X                                                                         X                                                  
     X  X                                                                         X                                                  
     X  X                                                                         X                                                  
     X  X                                                                         X                                                  
     X  X                                                                         X                                                  
     X  X                                                                         X                                                  
     X                                                                            X                                                  
     X                                                                            X                                                  
     X                                                                            X                                                  
     X                                                                            X                                                  
     X                                                                            X                                                  
     X                                                                            X                                                  
     X                                                                                                                               
     X                                                                                                                               
     X                                                                                                                               
     X                                                                                                                               
     X                                                                                                                               
     X                                                                                                                               
 
 ***** Axes restored to original set *****
 -------------------------------------------------------------------
 Center     Atomic                   Forces (Hartrees/Bohr)
 Number     Number              X              Y              Z
 -------------------------------------------------------------------
      1        8           0.000051140    0.000000000    0.000036143
      2        1          -0.000009072    0.000000000   -0.000041416
      3        1          -0.000042068    0.000000000    0.000005273
 -------------------------------------------------------------------
 Cartesian Forces:  Max     0.000051140 RMS     0.000028900
 Force constants in Cartesian coordinates: 
                1             2             3             4             5 
      1  0.535408D+00
      2  0.000000D+00 -0.437288D-03
      3 -0.101900D+00  0.000000D+00  0.607578D+00
      4 -0.433610D-01  0.000000D+00 -0.551008D-01  0.431159D-01
      5  0.000000D+00  0.218644D-03  0.000000D+00  0.000000D+00 -0.475351D-03
      6 -0.188710D-02  0.000000D+00 -0.528132D+00  0.817542D-02  0.000000D+00
      7 -0.492047D+00  0.000000D+00  0.157001D+00  0.245093D-03  0.000000D+00
      8  0.000000D+00  0.218644D-03  0.000000D+00  0.000000D+00  0.256707D-03
      9  0.103787D+00  0.000000D+00 -0.794457D-01  0.469254D-01  0.000000D+00
                6             7             8             9 
      6  0.542277D+00
      7 -0.628832D-02  0.491802D+00
      8  0.000000D+00  0.000000D+00 -0.475351D-03
      9 -0.141452D-01 -0.150713D+00  0.000000D+00  0.935910D-01
 FormGI is forming the generalized inverse of G from B-inverse, IUseBI=4.
 Force constants in internal coordinates: 
                1             2             3 
      1  0.542357D+00
      2 -0.289660D-02  0.542357D+00
      3  0.254171D-01  0.254171D-01  0.147378D+00
 Leave Link  716 at Tue Nov 26 18:20:55 2019, MaxMem=  5898240000 cpu:         0.5
 (Enter /apps/gaussian/g09_d01/g09/l103.exe)

 GradGradGradGradGradGradGradGradGradGradGradGradGradGradGradGradGradGrad
 Berny optimization.
 Red2BG is reusing G-inverse.
 Internal  Forces:  Max     0.000041787 RMS     0.000034940
 Search for a local minimum.
 Step number   1 out of a maximum of    2
 All quantities printed in internal units (Hartrees-Bohrs-Radians)
 Second derivative matrix not updated -- analytic derivatives used.
 The second derivative matrix:
                          R1        R2        A1
           R1           0.54236
           R2          -0.00290   0.54236
           A1           0.02542   0.02542   0.14738
 ITU=  0
     Eigenvalues ---    0.14411   0.54273   0.54525
 Angle between quadratic step and forces=  32.50 degrees.
 Linear search not attempted -- first point.
 Iteration  1 RMS(Cart)=  0.00006367 RMS(Int)=  0.00000000
 Iteration  2 RMS(Cart)=  0.00000000 RMS(Int)=  0.00000000
 ITry= 1 IFail=0 DXMaxC= 7.35D-05 DCOld= 1.00D+10 DXMaxT= 3.00D-01 DXLimC= 3.00D+00 Rises=F
 ClnCor:  largest displacement from symmetrization is 2.04D-15 for atom     3.
 Variable       Old X    -DE/DX   Delta X   Delta X   Delta X     New X
                                 (Linear)    (Quad)   (Total)
    R1        1.81966  -0.00004   0.00000  -0.00008  -0.00008   1.81958
    R2        1.81966  -0.00004   0.00000  -0.00008  -0.00008   1.81958
    A1        1.81969   0.00001   0.00000   0.00012   0.00012   1.81981
         Item               Value     Threshold  Converged?
 Maximum Force            0.000042     0.000450     YES
 RMS     Force            0.000035     0.000300     YES
 Maximum Displacement     0.000074     0.001800     YES
 RMS     Displacement     0.000064     0.001200     YES
 Predicted change in Energy=-4.231631D-09
 Optimization completed.
    -- Stationary point found.
                           ----------------------------
                           !   Optimized Parameters   !
                           ! (Angstroms and Degrees)  !
 --------------------------                            --------------------------
 ! Name  Definition              Value          Derivative Info.                !
 --------------------------------------------------------------------------------
 ! R1    R(1,2)                  0.9629         -DE/DX =    0.0                 !
 ! R2    R(1,3)                  0.9629         -DE/DX =    0.0                 !
 ! A1    A(2,1,3)              104.2605         -DE/DX =    0.0                 !
 --------------------------------------------------------------------------------
 GradGradGradGradGradGradGradGradGradGradGradGradGradGradGradGradGradGrad

 Leave Link  103 at Tue Nov 26 18:20:55 2019, MaxMem=  5898240000 cpu:         0.0
 (Enter /apps/gaussian/g09_d01/g09/l9999.exe)
 1\1\GINC-CX1-135-12-4\Freq\RM062X\6-311++G(d,p)\H2O1\SMF115\26-Nov-201
 9\0\\#P M062X/6-311++G(d,p) Freq SCRF(SMD) SCF(Conver=9) Int(Grid=Ultr
 aFine) Geom(Check) Guess(Read)\\water_sp Freq\\0,1\O,-0.0201699514,0.,
 -0.0142547123\H,0.0238423323,0.,0.9476611468\H,0.9012634505,0.,-0.2938
 610194\\Version=ES64L-G09RevD.01\State=1-A1\HF=-76.4347617\RMSD=0.000e
 +00\RMSF=2.890e-05\ZeroPoint=0.0212808\Thermal=0.024117\Dipole=0.85190
 11,0.,0.6020641\DipoleDeriv=-0.6714729,0.,0.0896857,0.,-0.9338447,0.,0
 .0896857,0.,-0.7349917,0.3608155,0.,-0.0809684,0.,0.4669224,0.,-0.0264
 792,0.,0.3424169,0.3106575,0.,-0.0087173,0.,0.4669224,0.,-0.0632065,0.
 ,0.3925748\Polar=8.0647588,0.,7.4266841,-0.8092767,0.,8.6379186\PG=C02
 V [C2(O1),SGV(H2)]\NImag=0\\0.53540807,0.,-0.00043729,-0.10190015,0.,0
 .60757754,-0.04336099,0.,-0.05510082,0.04311590,0.,0.00021864,0.,0.,-0
 .00047535,-0.00188710,0.,-0.52813181,0.00817542,0.,0.54227706,-0.49204
 708,0.,0.15700097,0.00024509,0.,-0.00628832,0.49180198,0.,0.00021864,0
 .,0.,0.00025671,0.,0.,-0.00047535,0.10378726,0.,-0.07944573,0.04692539
 ,0.,-0.01414525,-0.15071265,0.,0.09359098\\-0.00005114,0.,-0.00003614,
 0.00000907,0.,0.00004142,0.00004207,0.,-0.00000527\\\@


 KNOWLEDGE IS EXPERIMENT'S DAUGHTER.
 -- LEONARDO DA VINCI, IN "PENSIERI" CA. 1492
 Job cpu time:       0 days  0 hours  1 minutes 22.4 seconds.
 File lengths (MBytes):  RWF=      5 Int=      0 D2E=      0 Chk=      2 Scr=      1
 Normal termination of Gaussian 09 at Tue Nov 26 18:20:55 2019.
